# vtk DataFile Version 3.0 
Lennard-Jones particle simulation 
ASCII 
DATASET UNSTRUCTURED_GRID 
POINTS 1000 float 
-8.03864 -8.03864 -8.03865
-6.1012 -7.98683 -7.98683
-3.49298 -7.9956 -7.9956
-0.426834 -8.00589 -8.00591
2.83447 -8.01083 -8.01084
6.16555 -8.01083 -8.01083
9.42686 -8.0059 -8.00591
12.493 -7.99559 -7.9956
15.1012 -7.98683 -7.98684
17.0386 -8.03865 -8.03865
-7.98683 -6.1012 -7.98683
-6.07754 -6.07754 -7.91944
-3.48864 -6.07613 -7.92651
-0.427027 -6.07732 -7.93704
2.83414 -6.07831 -7.94223
6.16583 -6.07831 -7.94223
9.42703 -6.07732 -7.93704
12.4886 -6.07613 -7.9265
15.0775 -6.07753 -7.91944
16.9868 -6.10121 -7.98683
-7.9956 -3.49299 -7.9956
-6.07613 -3.48864 -7.9265
-3.48971 -3.48971 -7.93249
-0.428902 -3.49121 -7.94244
2.83339 -3.49197 -7.94751
6.16663 -3.49197 -7.94751
9.42891 -3.49121 -7.94244
12.4897 -3.48971 -7.9325
15.0761 -3.48863 -7.92651
16.9956 -3.49297 -7.99561
-8.0059 -0.426835 -8.0059
-6.07733 -0.427033 -7.93704
-3.49121 -0.428889 -7.94247
-0.430626 -0.430626 -7.95201
2.83264 -0.431439 -7.95692
6.16736 -0.43144 -7.95692
9.43063 -0.430626 -7.95205
12.4912 -0.428899 -7.94244
15.0773 -0.42702 -7.93703
17.0059 -0.426842 -8.0059
-8.01083 2.83449 -8.01084
-6.07832 2.83415 -7.94224
-3.49198 2.83339 -7.9475
-0.43145 2.83264 -7.95694
2.83228 2.83229 -7.96171
6.16772 2.83228 -7.96172
9.43142 2.83264 -7.95691
12.4919 2.83339 -7.94752
15.0783 2.83414 -7.94224
17.0108 2.83448 -8.01083
-8.01082 6.16552 -8.01082
-6.0783 6.16586 -7.94222
-3.49198 6.16663 -7.94751
-0.431443 6.16736 -7.95688
2.8323 6.1677 -7.96169
6.16772 6.16771 -7.96168
9.43145 6.16736 -7.95692
12.492 6.16663 -7.9475
15.0783 6.16586 -7.94223
17.0109 6.16553 -8.01083
-8.00591 9.42687 -8.00592
-6.07733 9.42704 -7.93706
-3.49123 9.42894 -7.94246
-0.430632 9.43061 -7.95204
2.83263 9.43144 -7.95693
6.16734 9.43143 -7.95693
9.43061 9.43061 -7.95202
12.4912 9.4289 -7.94247
15.0773 9.42702 -7.93705
17.0059 9.42684 -8.00591
-7.9956 12.493 -7.9956
-6.07613 12.4886 -7.9265
-3.48972 12.4897 -7.9325
-0.428903 12.4912 -7.94247
2.83339 12.492 -7.9475
6.16663 12.492 -7.9475
9.42891 12.4912 -7.94248
12.4897 12.4897 -7.93249
15.0761 12.4887 -7.92651
16.9956 12.493 -7.9956
-7.98683 15.1012 -7.98684
-6.07754 15.0775 -7.91945
-3.48864 15.0761 -7.92651
-0.427029 15.0773 -7.93705
2.83415 15.0783 -7.94224
6.16584 15.0783 -7.94224
9.42704 15.0773 -7.93705
12.4886 15.0761 -7.92652
15.0775 15.0775 -7.91944
16.9868 15.1012 -7.98684
-8.03865 17.0387 -8.03865
-6.10121 16.9868 -7.98684
-3.49299 16.9956 -7.99561
-0.42684 17.0059 -8.00591
2.83447 17.0108 -8.01084
6.16554 17.0108 -8.01084
9.42685 17.0059 -8.00591
12.493 16.9956 -7.99561
15.1012 16.9868 -7.98684
17.0387 17.0387 -8.03866
-7.98683 -7.98683 -6.10122
-6.07754 -7.91944 -6.07754
-3.48864 -7.92651 -6.07614
-0.427025 -7.93704 -6.07733
2.83414 -7.94223 -6.07832
6.16583 -7.94223 -6.07831
9.42704 -7.93704 -6.07733
12.4886 -7.9265 -6.07614
15.0775 -7.91944 -6.07755
16.9868 -7.98683 -6.10121
-7.91943 -6.07754 -6.07754
-6.03909 -6.03909 -6.0391
-3.47756 -6.03444 -6.03444
-0.424184 -6.03456 -6.03456
2.83467 -6.03526 -6.03525
6.16535 -6.03525 -6.03525
9.42416 -6.03456 -6.03456
12.4776 -6.03444 -6.03444
15.0391 -6.0391 -6.0391
16.9194 -6.07754 -6.07754
-7.92652 -3.48863 -6.07614
-6.03445 -3.47756 -6.03444
-3.47681 -3.4768 -6.02918
-0.425225 -3.47744 -6.02901
2.83411 -3.4779 -6.02968
6.16588 -3.47789 -6.02968
9.42523 -3.47744 -6.02901
12.4768 -3.4768 -6.02919
15.0344 -3.47757 -6.03445
16.9265 -3.48864 -6.07614
-7.93703 -0.427028 -6.07733
-6.03454 -0.424168 -6.03456
-3.47745 -0.425222 -6.02903
-0.426578 -0.426576 -6.02871
2.83351 -0.427228 -6.02931
6.1665 -0.427227 -6.0293
9.42659 -0.426577 -6.02874
12.4775 -0.425218 -6.02901
15.0346 -0.424176 -6.03455
16.937 -0.42703 -6.07732
-7.94223 2.83414 -6.07832
-6.03525 2.83467 -6.03526
-3.47789 2.83412 -6.02968
-0.42723 2.83348 -6.02933
2.83317 2.83317 -6.02982
6.16685 2.83318 -6.02983
9.42726 2.83347 -6.02929
12.4779 2.83413 -6.0297
15.0353 2.83467 -6.03526
16.9422 2.83415 -6.07831
-7.94225 6.16585 -6.0783
-6.03528 6.16533 -6.03524
-3.47791 6.16587 -6.02969
-0.427236 6.16652 -6.02927
2.83315 6.16685 -6.0298
6.16684 6.16684 -6.02979
9.42725 6.16652 -6.02931
12.4779 6.16586 -6.02967
15.0353 6.16532 -6.03525
16.9422 6.16585 -6.07831
-7.93703 9.42704 -6.07734
-6.03455 9.42419 -6.03457
-3.47745 9.42521 -6.02902
-0.426581 9.42657 -6.02874
2.8335 9.42725 -6.02932
6.16651 9.42726 -6.02933
9.42659 9.42658 -6.02871
12.4775 9.42523 -6.02904
15.0346 9.42418 -6.03457
16.9371 9.42704 -6.07734
-7.92651 12.4886 -6.07615
-6.03445 12.4776 -6.03444
-3.4768 12.4768 -6.02919
-0.425222 12.4775 -6.02903
2.83411 12.4779 -6.02968
6.16586 12.4779 -6.02968
9.42522 12.4775 -6.02905
12.4768 12.4768 -6.02917
15.0344 12.4776 -6.03445
16.9265 12.4886 -6.07614
-7.91944 15.0775 -6.07755
-6.0391 15.0391 -6.03911
-3.47757 15.0344 -6.03444
-0.424189 15.0346 -6.03457
2.83466 15.0353 -6.03526
6.16535 15.0353 -6.03526
9.42416 15.0346 -6.03456
12.4776 15.0344 -6.03446
15.0391 15.0391 -6.03911
16.9194 15.0775 -6.07755
-7.98684 16.9868 -6.10121
-6.07755 16.9194 -6.07755
-3.48865 16.9265 -6.07615
-0.427031 16.9371 -6.07733
2.83414 16.9422 -6.07832
6.16583 16.9422 -6.07832
9.42704 16.9371 -6.07734
12.4886 16.9265 -6.07615
15.0775 16.9194 -6.07755
16.9868 16.9868 -6.10121
-7.99561 -7.99561 -3.493
-6.07615 -7.92652 -3.48864
-3.48973 -7.93248 -3.48971
-0.428911 -7.94247 -3.49122
2.83338 -7.94751 -3.49197
6.16664 -7.94751 -3.49197
9.42892 -7.94246 -3.49122
12.4897 -7.9325 -3.4897
15.0762 -7.92651 -3.48865
16.9956 -7.99561 -3.49299
-7.92652 -6.07614 -3.48864
-6.03445 -6.03446 -3.47756
-3.47681 -6.02917 -3.4768
-0.42523 -6.02904 -3.47746
2.83411 -6.02968 -3.47789
6.16588 -6.02968 -3.47789
9.42523 -6.02903 -3.47745
12.4768 -6.02919 -3.4768
15.0345 -6.03445 -3.47757
16.9265 -6.07614 -3.48865
-7.93248 -3.48972 -3.48971
-6.02917 -3.47681 -3.4768
-3.47572 -3.47571 -3.47573
-0.426138 -3.47623 -3.47621
2.83362 -3.47663 -3.47664
6.16637 -3.47664 -3.47664
9.42614 -3.47622 -3.4762
12.4757 -3.47573 -3.47574
15.0292 -3.4768 -3.47681
16.9325 -3.48972 -3.48972
-7.94247 -0.428909 -3.49121
-6.02905 -0.42523 -3.47744
-3.47624 -0.426139 -3.47622
-0.427426 -0.427414 -3.47667
2.833 -0.428066 -3.47707
6.16699 -0.428073 -3.47706
9.42742 -0.4274 -3.47671
12.4762 -0.426163 -3.4762
15.029 -0.425229 -3.47745
16.9425 -0.428909 -3.49121
-7.94752 2.83338 -3.49199
-6.02969 2.83412 -3.4779
-3.47664 2.83359 -3.47664
-0.428079 2.833 -3.47709
2.83268 2.83269 -3.47744
6.1673 2.83268 -3.47746
9.42804 2.83301 -3.47706
12.4766 2.83358 -3.47665
15.0297 2.83412 -3.4779
16.9475 2.83338 -3.49199
-7.94753 6.16662 -3.49198
-6.0297 6.16586 -3.47789
-3.47664 6.16638 -3.47665
-0.428063 6.16698 -3.47704
2.83269 6.16732 -3.47741
6.16732 6.16731 -3.47739
9.42808 6.16701 -3.47708
12.4766 6.16635 -3.47664
15.0297 6.16587 -3.47789
16.9475 6.16661 -3.49198
-7.94244 9.42889 -3.49123
-6.02901 9.42523 -3.47746
-3.47621 9.42612 -3.47621
-0.427418 9.42741 -3.47669
2.83299 9.42807 -3.47708
6.16699 9.42806 -3.47709
9.42741 9.42742 -3.47666
12.4762 9.42612 -3.47623
15.029 9.42522 -3.47746
16.9424 9.42889 -3.49124
-7.93247 12.4897 -3.48973
-6.02915 12.4768 -3.4768
-3.4757 12.4757 -3.47573
-0.426114 12.4762 -3.47623
2.83362 12.4766 -3.47664
6.16638 12.4766 -3.47662
9.42614 12.4762 -3.47624
12.4757 12.4757 -3.47571
15.0292 12.4768 -3.47681
16.9325 12.4897 -3.48972
-7.9265 15.0761 -3.48866
-6.03444 15.0344 -3.47758
-3.47679 15.0292 -3.4768
-0.425211 15.029 -3.47746
2.83412 15.0297 -3.4779
6.16586 15.0297 -3.4779
9.42523 15.029 -3.47745
12.4768 15.0291 -3.47682
15.0344 15.0344 -3.47758
16.9265 15.0761 -3.48866
-7.99559 16.9956 -3.493
-6.07612 16.9265 -3.48865
-3.4897 16.9325 -3.48973
-0.428892 16.9424 -3.49123
2.83339 16.9475 -3.49198
6.16663 16.9475 -3.49198
9.42891 16.9424 -3.49122
12.4897 16.9325 -3.48973
15.0761 16.9265 -3.48866
16.9956 16.9956 -3.49301
-8.00588 -8.00587 -0.426862
-6.0773 -7.93701 -0.427034
-3.49119 -7.94245 -0.428903
-0.430616 -7.95201 -0.430639
2.83265 -7.95692 -0.431445
6.16736 -7.95692 -0.431446
9.43061 -7.95201 -0.430646
12.4912 -7.94244 -0.428897
15.0773 -7.93702 -0.42704
17.0059 -8.00588 -0.426861
-7.93701 -6.0773 -0.427039
-6.03453 -6.03453 -0.424182
-3.47743 -6.02902 -0.425255
-0.426571 -6.02871 -0.426601
2.8335 -6.02931 -0.427228
6.1665 -6.0293 -0.427232
9.42655 -6.02872 -0.426597
12.4774 -6.029 -0.425221
15.0345 -6.03454 -0.424185
16.937 -6.0773 -0.427025
-7.94245 -3.49119 -0.428899
-6.02902 -3.47743 -0.425224
-3.47622 -3.47621 -0.426155
-0.427415 -3.47665 -0.427392
2.833 -3.47707 -0.428065
6.167 -3.47706 -0.428068
9.42742 -3.47667 -0.427384
12.4762 -3.4762 -0.426168
15.029 -3.47744 -0.425233
16.9425 -3.4912 -0.428916
-7.95201 -0.430615 -0.430642
-6.0287 -0.426573 -0.426582
-3.47665 -0.427403 -0.427412
-0.428661 -0.428659 -0.428676
2.83242 -0.429336 -0.429317
6.16763 -0.429325 -0.429315
9.42871 -0.428676 -0.428704
12.4767 -0.427385 -0.427379
15.0287 -0.426581 -0.426597
16.952 -0.430619 -0.430634
-7.95691 2.83265 -0.431458
-6.0293 2.8335 -0.427246
-3.47707 2.833 -0.428076
-0.429333 2.83241 -0.42934
2.83207 2.83206 -0.429957
6.16792 2.83208 -0.429976
9.42932 2.83241 -0.429307
12.4771 2.83301 -0.42809
15.0293 2.8335 -0.427239
16.9569 2.83267 -0.431455
-7.95691 6.16737 -0.431437
-6.02931 6.16648 -0.427226
-3.47707 6.167 -0.428067
-0.429333 6.16761 -0.429302
2.83206 6.16793 -0.429929
6.16791 6.16791 -0.429921
9.42931 6.16761 -0.429341
12.4771 6.167 -0.428063
15.0293 6.16649 -0.427229
16.9569 6.16735 -0.431448
-7.95201 9.43062 -0.430638
-6.02871 9.42655 -0.426615
-3.47666 9.42742 -0.427403
-0.428652 9.42871 -0.428686
2.8324 9.4293 -0.429355
6.16765 9.42932 -0.429351
9.42872 9.42869 -0.428663
12.4767 9.42743 -0.427412
15.0287 9.42658 -0.426609
16.952 9.43062 -0.430644
-7.94246 12.4912 -0.428905
-6.02903 12.4774 -0.425231
-3.47623 12.4762 -0.426179
-0.427423 12.4767 -0.42743
2.83299 12.4771 -0.428067
6.167 12.4771 -0.428054
9.42742 12.4767 -0.427448
12.4762 12.4762 -0.426148
15.029 12.4774 -0.425248
16.9424 12.4912 -0.42891
-7.93702 15.0773 -0.427041
[...]
POINT_DATA 1000
SCALARS mass float 
LOOKUP_TABLE default 
1
1
1
1
1
1
1
1
1
1
1
1
1
1
1
1
1
1
1
1
1
1
1
1
1
1
1
1
1
1
1
1
1
1
1
1
1
1
1
1
1
1
1
1
1
1
1
1
1
1
1
1
1
1
1
1
1
1
1
1
1
1
1
1
1
1
1
1
1
1
1
1
1
1
1
1
1
1
1
1
1
1
1
1
1
1
1
1
1
1
1
1
1
1
1
1
1
1
1
1
1
1
1
1
1
1
1
1
1
1
1
1
1
1
1
1
1
1
1
1
1
1
1
1
1
1
1
1
1
1
1
1
1
1
1
1
1
1
1
1
1
1
1
1
1
1
1
1
1
1
1
1
1
1
1
1
1
1
1
1
1
1
1
1
1
1
1
1
1
1
1
1
1
1
1
1
1
1
1
1
1
1
1
1
1
1
1
1
1
1
1
1
1
1
1
1
1
1
1
1
1
1
1
1
1
1
1
1
1
1
1
1
1
1
1
1
1
1
1
1
1
1
1
1
1
1
1
1
1
1
1
1
1
1
1
1
1
1
1
1
1
1
1
1
1
1
1
1
1
1
1
1
1
1
1
1
1
1
1
1
1
1
1
1
1
1
1
1
1
1
1
1
1
1
1
1
1
1
1
1
1
1
1
1
1
1
1
1
1
1
1
1
1
1
1
1
1
1
1
1
1
1
1
1
1
1
1
1
1
1
1
1
1
1
1
1
1
1
1
1
1
1
1
1
1
1
1
1
1
1
1
1
1
1
1
1
1
1
1
1
1
1
1
1
1
1
1
1
1
1
1
1
1
1
1
1
1
1
1
1
1
1
1
1
1
1
1
1
1
1
1
1
1
1
1
1
1
1
1
1
1
1
1
1
1
1
1
1
1
1
1
1
1
1
1
1
1
1
1
1
1
1
1
1
1
1
1
1
1
1
1
1
1
1
1
1
1
1
1
1
1
1
1
1
1
1
1
1
1
1
1
1
1
1
1
1
1
1
1
1
1
1
1
1
1
1
1
1
1
1
1
1
1
1
1
1
1
1
1
1
1
1
1
1
1
1
1
1
1
1
1
1
1
1
1
1
1
1
1
1
1
1
1
1
1
1
1
1
1
1
1
1
1
1
1
1
1
1
1
1
1
1
1
1
1
1
1
1
1
1
1
1
1
1
1
1
1
1
1
1
1
1
1
1
1
1
1
1
1
1
1
1
1
1
1
1
1
1
1
1
1
1
1
1
1
1
1
1
1
1
1
1
1
1
1
1
1
1
1
1
1
1
1
1
1
1
1
1
1
1
1
1
1
1
1
1
1
1
1
1
1
1
1
1
1
1
1
1
1
1
1
1
1
1
1
1
1
1
1
1
1
1
1
1
1
1
1
1
1
1
1
1
1
1
1
1
1
1
1
1
1
1
1
1
1
1
1
1
1
1
1
1
1
1
1
1
1
1
1
1
1
1
1
1
1
1
1
1
1
1
1
1
1
1
1
1
1
1
1
1
1
1
1
1
1
1
1
1
1
1
1
1
1
1
1
1
1
1
1
1
1
1
1
1
1
1
1
1
1
1
1
1
1
1
1
1
1
1
1
1
1
1
1
1
1
1
1
1
1
1
1
1
1
1
1
1
1
1
1
1
1
1
1
1
1
1
1
1
1
1
1
1
1
1
1
1
1
1
1
1
1
1
1
1
1
1
1
1
1
1
1
1
1
1
1
1
1
1
1
1
1
1
1
1
1
1
1
1
1
1
1
1
1
1
1
1
1
1
1
1
1
1
1
1
1
1
1
1
1
1
1
1
1
1
1
1
1
1
1
1
1
1
1
1
1
1
1
1
1
1
1
1
1
1
1
1
1
1
1
1
1
1
1
1
1
1
1
1
1
1
1
1
1
1
1
1
1
1
1
1
1
1
1
1
1
1
1
1
1
1
1
1
1
1
1
1
1
1
1
1
1
1
1
1
1
1
1
1
1
1
1
1
1
1
1
1
1
1
1
1
1
1
1
1
1
1
1
1
1
1
1
1
1
1
1
1
1
1
1
1
1
1
1
1
1
1
1
1
1
1
1
1
1
1
1
1
1
1
1
1
1
1
1
1
1
1
1
1
1
1
1
1
1
1
1
1
1
1
1
1
1
1
1
1
1
1
1
1
1
1
1
1
1
1
1
1
1
1
1
1
1
1
1
1
1
1
1
1
1
1
1
1
1
1
1
1
1
1
1
1
1
1
1
1
1
1
1
1
1
1
1
1
1
1
1
1
1
1
1
1
VECTORS velocity float 
-12.1243 -12.1243 -12.1244
-11.2893 -12.0195 -12.0195
-8.77204 -12.0513 -12.0513
-5.46893 -12.0791 -12.0791
-1.86326 -12.0912 -12.0912
1.86328 -12.0912 -12.0912
5.46898 -12.0791 -12.0791
8.77204 -12.0513 -12.0513
11.2893 -12.0195 -12.0195
12.1243 -12.1243 -12.1244
-12.0195 -11.2893 -12.0195
-11.2495 -11.2495 -11.8906
-8.76844 -11.237 -11.922
-5.47043 -11.2346 -11.952
-1.86411 -11.2347 -11.9652
1.86406 -11.2347 -11.9652
5.47044 -11.2346 -11.952
8.76843 -11.237 -11.922
11.2495 -11.2495 -11.8906
12.0195 -11.2893 -12.0195
-12.0513 -8.77205 -12.0513
-11.237 -8.76843 -11.922
-8.76556 -8.76555 -11.9502
-5.47194 -8.76558 -11.9785
-1.86491 -8.76591 -11.9912
1.86494 -8.76591 -11.9912
5.47196 -8.76558 -11.9785
8.76554 -8.76555 -11.9502
11.237 -8.76842 -11.922
12.0513 -8.77203 -12.0513
-12.0791 -5.46893 -12.0791
-11.2346 -5.47044 -11.952
-8.76559 -5.47192 -11.9785
-5.47385 -5.47385 -12.0058
-1.8659 -5.4748 -12.018
1.8659 -5.4748 -12.018
5.47386 -5.47385 -12.0058
8.76558 -5.47194 -11.9785
11.2346 -5.47042 -11.952
12.0791 -5.46895 -12.0791
-12.0912 -1.86323 -12.0912
-11.2348 -1.86409 -11.9652
-8.76593 -1.86491 -11.9912
-5.47482 -1.86589 -12.0181
-1.86638 -1.86637 -12.0301
1.86639 -1.86637 -12.0301
5.47477 -1.86589 -12.018
8.76588 -1.86491 -11.9912
11.2347 -1.8641 -11.9652
12.0912 -1.86325 -12.0912
-12.0912 1.86323 -12.0912
-11.2347 1.86411 -11.9652
-8.76592 1.86494 -11.9912
-5.47481 1.86589 -12.018
-1.86634 1.86635 -12.0301
1.86637 1.86636 -12.03
5.47482 1.86589 -12.018
8.76594 1.86494 -11.9912
11.2348 1.86411 -11.9652
12.0913 1.86326 -12.0912
-12.0791 5.469 -12.0792
-11.2346 5.47045 -11.9521
-8.76561 5.47201 -11.9785
-5.47386 5.47382 -12.0058
-1.8659 5.47479 -12.0181
1.86586 5.47478 -12.0181
5.47382 5.47383 -12.0058
8.76559 5.47193 -11.9786
11.2346 5.47042 -11.9521
12.0791 5.46896 -12.0792
-12.0513 8.77203 -12.0513
-11.237 8.76841 -11.922
-8.76556 8.76556 -11.9502
-5.47194 8.7656 -11.9786
-1.8649 8.76593 -11.9912
1.86495 8.76593 -11.9912
5.47196 8.7656 -11.9786
8.76555 8.76556 -11.9502
11.237 8.76845 -11.922
12.0513 8.77205 -12.0513
-12.0195 11.2893 -12.0195
-11.2495 11.2495 -11.8906
-8.76844 11.237 -11.922
-5.47043 11.2346 -11.9521
-1.86409 11.2347 -11.9652
1.86407 11.2347 -11.9652
5.47045 11.2346 -11.952
8.76842 11.237 -11.922
11.2495 11.2495 -11.8906
12.0195 11.2893 -12.0195
-12.1244 12.1244 -12.1244
-11.2893 12.0195 -12.0195
-8.77205 12.0513 -12.0513
-5.46895 12.0791 -12.0791
-1.86326 12.0912 -12.0912
1.86327 12.0912 -12.0912
5.46896 12.0791 -12.0792
8.77205 12.0513 -12.0513
11.2893 12.0195 -12.0195
12.1244 12.1244 -12.1244
-12.0195 -12.0195 -11.2893
-11.2495 -11.8906 -11.2495
-8.76844 -11.922 -11.237
-5.47042 -11.952 -11.2346
-1.86411 -11.9652 -11.2347
1.86406 -11.9652 -11.2347
5.47046 -11.952 -11.2346
8.76841 -11.922 -11.237
11.2495 -11.8906 -11.2495
12.0195 -12.0195 -11.2893
-11.8906 -11.2495 -11.2495
-11.182 -11.182 -11.182
-8.75486 -11.1625 -11.1625
-5.46761 -11.158 -11.158
-1.86376 -11.1577 -11.1577
1.86378 -11.1577 -11.1577
5.46756 -11.158 -11.158
8.7549 -11.1625 -11.1625
11.182 -11.182 -11.182
11.8906 -11.2495 -11.2495
-11.922 -8.76843 -11.237
-11.1625 -8.75486 -11.1625
-8.74827 -8.74825 -11.1427
-5.46752 -8.74649 -11.1381
-1.86418 -8.7462 -11.1379
1.86416 -8.74619 -11.1379
5.46753 -8.7465 -11.1381
8.74827 -8.74824 -11.1427
11.1625 -8.75486 -11.1625
11.922 -8.76844 -11.237
-11.952 -5.47043 -11.2346
-11.158 -5.46759 -11.158
-8.74651 -5.46752 -11.1382
-5.4687 -5.4687 -11.1335
-1.8649 -5.46933 -11.1331
1.86491 -5.46933 -11.1331
5.46872 -5.4687 -11.1335
8.74652 -5.46751 -11.1381
11.158 -5.4676 -11.158
11.9521 -5.47043 -11.2346
-11.9652 -1.8641 -11.2348
-11.1577 -1.86375 -11.1577
-8.74619 -1.86417 -11.1379
-5.46934 -1.86495 -11.1332
-1.86533 -1.86534 -11.1326
1.86536 -1.86532 -11.1327
5.46939 -1.86496 -11.1331
8.7462 -1.86415 -11.1379
11.1577 -1.86375 -11.1577
11.9652 -1.8641 -11.2347
-11.9652 1.86409 -11.2347
-11.1577 1.86375 -11.1577
-8.74623 1.86416 -11.1379
-5.46935 1.86494 -11.1331
-1.86536 1.86536 -11.1326
1.86536 1.86535 -11.1326
5.46938 1.86494 -11.1331
8.74621 1.86413 -11.1379
11.1577 1.86374 -11.1577
11.9652 1.86409 -11.2347
-11.952 5.47045 -11.2346
-11.158 5.46761 -11.1581
-8.74652 5.46751 -11.1381
-5.4687 5.46869 -11.1335
-1.86491 5.46938 -11.1331
1.86492 5.46939 -11.1332
5.46872 5.4687 -11.1335
8.74654 5.46753 -11.1382
11.1581 5.4676 -11.158
11.9521 5.47046 -11.2346
-11.922 8.76842 -11.237
-11.1625 8.75489 -11.1625
-8.74826 8.74829 -11.1427
-5.46752 8.74654 -11.1382
-1.86418 8.74621 -11.1379
1.86414 8.74622 -11.1379
5.46751 8.74653 -11.1382
8.74829 8.7483 -11.1426
11.1624 8.75489 -11.1625
11.922 8.76841 -11.237
-11.8906 11.2495 -11.2495
-11.182 11.182 -11.182
-8.75486 11.1624 -11.1625
-5.46762 11.1581 -11.1581
-1.86376 11.1577 -11.1577
1.86377 11.1577 -11.1577
5.46757 11.1581 -11.158
8.75491 11.1625 -11.1625
11.182 11.182 -11.182
11.8906 11.2495 -11.2495
-12.0195 12.0195 -11.2893
-11.2495 11.8906 -11.2495
-8.76845 11.922 -11.237
-5.47044 11.952 -11.2346
-1.86411 11.9652 -11.2348
1.86405 11.9652 -11.2348
5.47046 11.9521 -11.2346
8.76842 11.922 -11.237
11.2495 11.8906 -11.2495
12.0195 12.0195 -11.2893
-12.0513 -12.0513 -8.77206
-11.237 -11.922 -8.76844
-8.76558 -11.9502 -8.76554
-5.47196 -11.9786 -8.7656
-1.86492 -11.9912 -8.76591
1.86495 -11.9912 -8.76592
5.47197 -11.9785 -8.7656
8.76557 -11.9502 -8.76554
11.237 -11.922 -8.76845
12.0513 -12.0513 -8.77206
-11.922 -11.237 -8.76843
-11.1625 -11.1625 -8.75486
-8.74827 -11.1426 -8.74825
-5.46753 -11.1382 -8.74653
-1.86418 -11.1379 -8.74619
1.86416 -11.1379 -8.74619
5.46754 -11.1381 -8.74652
8.7483 -11.1427 -8.74825
11.1625 -11.1625 -8.75487
11.922 -11.237 -8.76845
-11.9502 -8.76557 -8.76555
-11.1426 -8.74826 -8.74826
-8.74142 -8.74141 -8.74144
-5.4673 -8.73962 -8.73958
-1.86454 -8.73929 -8.73929
1.86452 -8.73929 -8.73929
5.4673 -8.7396 -8.73956
8.74141 -8.74144 -8.74146
11.1426 -8.74826 -8.74827
11.9502 -8.76557 -8.76556
-11.9786 -5.47196 -8.76559
-11.1382 -5.46753 -8.74649
-8.73963 -5.46731 -8.73959
-5.46842 -5.4684 -8.7378
-1.86529 -5.46906 -8.73749
1.86526 -5.46907 -8.73747
5.46842 -5.46838 -8.73786
8.73955 -5.46735 -8.73956
11.1381 -5.46753 -8.74651
11.9785 -5.47196 -8.76558
-11.9912 -1.86493 -8.76594
-11.1379 -1.86417 -8.74621
-8.73929 -1.86458 -8.7393
-5.46908 -1.86529 -8.73752
-1.8657 -1.86568 -8.73713
1.86567 -1.8657 -8.73717
5.46903 -1.86528 -8.73747
8.73924 -1.86459 -8.7393
11.1379 -1.86417 -8.74621
11.9912 -1.86492 -8.76593
-11.9912 1.86493 -8.76592
-11.1379 1.86413 -8.74619
-8.73929 1.86453 -8.7393
-5.46906 1.86525 -8.73744
-1.86568 1.86569 -8.73709
1.86569 1.86567 -8.73706
5.46909 1.86531 -8.7375
8.73928 1.86448 -8.73929
11.1379 1.86416 -8.74618
11.9912 1.86491 -8.76592
-11.9785 5.47193 -8.76562
-11.1381 5.46753 -8.74652
-8.73959 5.46728 -8.73959
-5.46841 5.46839 -8.73782
-1.86531 5.46907 -8.7375
1.86527 5.46905 -8.73751
5.4684 5.46842 -8.73778
8.7395 5.46727 -8.73961
11.1381 5.46752 -8.74653
11.9785 5.47193 -8.76563
-11.9501 8.76556 -8.76558
-11.1426 8.7483 -8.74825
-8.74139 8.74139 -8.74144
-5.46726 8.73956 -8.73961
-1.86453 8.73926 -8.73929
1.86453 8.73926 -8.73926
5.4673 8.73958 -8.73964
8.74139 8.74139 -8.7414
11.1426 8.74829 -8.74827
11.9502 8.76556 -8.76557
-11.922 11.2369 -8.76846
-11.1625 11.1625 -8.75488
-8.74824 11.1426 -8.74825
-5.4675 11.1381 -8.74653
-1.86417 11.1379 -8.74621
1.86413 11.1379 -8.74621
5.46754 11.1381 -8.74651
8.7483 11.1426 -8.74828
11.1624 11.1625 -8.75488
11.922 11.2369 -8.76846
-12.0513 12.0513 -8.77207
-11.2369 11.922 -8.76846
-8.76555 11.9502 -8.76557
-5.47193 11.9785 -8.76561
-1.86491 11.9912 -8.76593
1.86495 11.9912 -8.76593
5.47195 11.9785 -8.7656
8.76556 11.9502 -8.76558
11.237 11.922 -8.76846
12.0513 12.0513 -8.77208
-12.0791 -12.0791 -5.46898
-11.2345 -11.952 -5.47044
-8.76556 -11.9785 -5.47195
-5.47383 -12.0057 -5.47387
-1.86587 -12.018 -5.47481
1.86588 -12.018 -5.47481
5.47383 -12.0058 -5.47388
8.76556 -11.9785 -5.47194
11.2345 -11.952 -5.47045
12.0791 -12.0791 -5.46898
-11.952 -11.2345 -5.47045
-11.158 -11.158 -5.46761
-8.74648 -11.1381 -5.46758
-5.46869 -11.1335 -5.46874
-1.8649 -11.1331 -5.46933
1.8649 -11.1331 -5.46934
5.46865 -11.1335 -5.46873
8.74646 -11.1381 -5.46751
11.1579 -11.158 -5.46761
11.952 -11.2345 -5.47043
-11.9785 -8.76555 -5.47194
-11.1381 -8.74648 -5.46752
-8.7396 -8.73959 -5.46733
-5.4684 -8.73777 -5.46837
-1.86529 -8.73748 -5.46905
1.86528 -8.73747 -5.46906
5.46841 -8.73778 -5.46835
8.73959 -8.73956 -5.46735
11.1382 -8.7465 -5.46754
11.9786 -8.76556 -5.47197
-12.0057 -5.47383 -5.47388
-11.1335 -5.46869 -5.46871
-8.73777 -5.46838 -5.4684
-5.46949 -5.46948 -5.46951
-1.86598 -5.47019 -5.47016
1.86606 -5.47017 -5.47015
5.46957 -5.46951 -5.46955
8.73783 -5.46836 -5.46834
11.1335 -5.4687 -5.46873
12.0058 -5.47384 -5.47387
-12.018 -1.86587 -5.47483
-11.1331 -1.86492 -5.46936
-8.73748 -1.86529 -5.46907
-5.47018 -1.86601 -5.47019
-1.86645 -1.86646 -5.47081
1.86643 -1.86644 -5.47084
5.47016 -1.866 -5.47014
8.7375 -1.86528 -5.4691
11.1331 -1.86491 -5.46935
12.0181 -1.86585 -5.47483
-12.018 1.8659 -5.47479
-11.1331 1.86489 -5.46933
-8.73749 1.86529 -5.46906
-5.47018 1.86604 -5.47013
-1.86647 1.86644 -5.47077
1.86642 1.86642 -5.47075
5.47015 1.86603 -5.4702
8.73748 1.86528 -5.46905
11.1331 1.86488 -5.46934
12.018 1.86586 -5.47482
-12.0057 5.47383 -5.47387
-11.1335 5.46865 -5.46876
-8.73778 5.46843 -5.46838
-5.46947 5.46956 -5.46953
-1.86602 5.47014 -5.47022
1.86611 5.47016 -5.47021
5.46958 5.46953 -5.46949
8.73785 5.46843 -5.4684
11.1335 5.46871 -5.46875
12.0058 5.47384 -5.47388
-11.9785 8.76556 -5.47194
-11.1381 8.74646 -5.46753
-8.73961 8.73957 -5.46737
-5.46842 8.73783 -5.46843
-1.86531 8.73751 -5.46906
1.86529 8.73752 -5.46904
5.46841 8.73781 -5.46846
8.73953 8.73958 -5.46732
11.1381 8.74642 -5.46756
11.9785 8.76558 -5.47195
-11.952 11.2346 -5.47045
-11.158 11.158 -5.46762
-8.74649 11.1381 -5.46753
-5.46869 11.1335 -5.46875
-1.86491 11.1331 -5.46934
1.86489 11.1331 -5.46934
5.46866 11.1335 -5.46872
8.74647 11.1381 -5.46758
11.158 11.158 -5.46761
11.952 11.2345 -5.47045
-12.0791 12.0791 -5.46899
-11.2346 11.952 -5.47045
-8.76557 11.9785 -5.47197
-5.47384 12.0058 -5.47386
-1.86587 12.018 -5.47483
1.86588 12.0181 -5.47483
5.47383 12.0058 -5.47387
8.76557 11.9785 -5.47195
11.2345 11.952 -5.47045
12.0791 12.0791 -5.46898
-12.0912 -12.0912 -1.8633
-11.2347 -11.9652 -1.8641
-8.76592 -11.9912 -1.86493
-5.47481 -12.018 -1.86592
-1.86636 -12.0301 -1.86638
1.86639 -12.0301 -1.86636
5.47476 -12.018 -1.86595
8.76591 -11.9912 -1.86494
11.2347 -11.9652 -1.86413
12.0912 -12.0912 -1.8633
-11.9652 -11.2347 -1.86414
-11.1577 -11.1577 -1.86377
-8.74619 -11.1379 -1.86412
-5.46933 -11.1331 -1.86494
-1.86533 -11.1326 -1.86534
1.86537 -11.1327 -1.86534
5.46938 -11.1331 -1.86496
8.74622 -11.1379 -1.86416
11.1577 -11.1577 -1.86376
11.9653 -11.2347 -1.86413
-11.9912 -8.76592 -1.86493
-11.1379 -8.7462 -1.86417
-8.73926 -8.73928 -1.86459
-5.46904 -8.73749 -1.86524
-1.86568 -8.73713 -1.86571
1.86568 -8.73716 -1.86571
5.46905 -8.73747 -1.86525
8.73921 -8.73928 -1.86461
11.1378 -8.74619 -1.86415
11.9911 -8.76593 -1.86491
-12.018 -5.47483 -1.86591
-11.1331 -5.46935 -1.86491
-8.73748 -5.46906 -1.86528
-5.47018 -5.47016 -1.86606
-1.86646 -5.4708 -1.86645
1.86643 -5.47082 -1.86644
5.47015 -5.47017 -1.86609
8.73751 -5.46908 -1.86524
11.1332 -5.46933 -1.86491
12.0181 -5.47481 -1.86591
-12.0301 -1.86634 -1.86635
-11.1327 -1.86532 -1.86536
-8.73713 -1.8657 -1.8657
-5.47078 -1.86645 -1.86647
-1.86684 -1.86684 -1.86688
1.86686 -1.86688 -1.8669
5.47077 -1.86644 -1.86641
8.73709 -1.8657 -1.86573
11.1326 -1.86533 -1.86535
12.0301 -1.86637 -1.86636
-12.0301 1.86634 -1.86636
-11.1326 1.86536 -1.86533
-8.73712 1.86568 -1.86569
-5.47078 1.86645 -1.86645
-1.86683 1.86685 -1.86679
1.86685 1.86682 -1.86678
5.47078 1.86644 -1.86646
8.73707 1.86567 -1.8657
11.1326 1.86537 -1.86534
12.0301 1.86637 -1.86636
-12.018 5.4748 -1.86592
-11.1331 5.46937 -1.86497
-8.73748 5.469 -1.86528
-5.47019 5.47016 -1.86605
-1.86645 5.47073 -1.8665
1.86643 5.47073 -1.86649
5.47014 5.47018 -1.86603
8.73752 5.469 -1.86531
11.1331 5.46936 -1.865
12.0181 5.47478 -1.86594
-11.9912 8.76585 -1.86498
-11.1379 8.74618 -1.86418
-8.73926 8.73922 -1.86461
-5.46904 8.73751 -1.86529
-1.86567 8.7371 -1.86569
1.86568 8.73709 -1.86568
5.46905 8.73752 -1.86537
8.73921 8.7392 -1.86459
11.1379 8.7462 -1.86417
11.9912 8.76586 -1.86499
-11.9652 11.2347 -1.86412
-11.1577 11.1577 -1.86381
-8.74619 11.1379 -1.86419
-5.46933 11.1331 -1.86497
-1.86533 11.1326 -1.86538
1.86537 11.1326 -1.86537
5.46936 11.1332 -1.86496
8.7462 11.1378 -1.86419
11.1577 11.1577 -1.8638
11.9652 11.2348 -1.86412
-12.0912 12.0912 -1.86331
-11.2347 11.9652 -1.86413
-8.76591 11.9912 -1.86501
-5.4748 12.0181 -1.86593
-1.86637 12.0301 -1.86639
1.86638 12.03 -1.86638
5.47479 12.0181 -1.86594
8.7659 11.9912 -1.86498
11.2347 11.9652 -1.86412
12.0912 12.0912 -1.86333
-12.0912 -12.0912 1.86324
-11.2347 -11.9652 1.86404
-8.76591 -11.9912 1.86492
-5.4748 -12.018 1.86587
-1.86636 -12.0301 1.86636
1.86637 -12.03 1.86637
5.47476 -12.0181 1.86586
8.76589 -11.9912 1.86493
11.2347 -11.9652 1.86407
12.0912 -12.0912 1.86324
-11.9652 -11.2347 1.86409
-11.1577 -11.1577 1.86374
-8.74621 -11.1379 1.86416
-5.46934 -11.1331 1.86486
-1.86534 -11.1326 1.86532
1.86537 -11.1326 1.86532
5.46938 -11.1331 1.86488
8.74621 -11.1378 1.8642
11.1577 -11.1577 1.86376
11.9653 -11.2347 1.86405
-11.9912 -8.76592 1.86491
-11.1379 -8.7462 1.86419
-8.73927 -8.73927 1.86446
-5.46907 -8.73747 1.86531
-1.86568 -8.73713 1.86567
1.86571 -8.73705 1.86567
5.46903 -8.73749 1.86533
8.73924 -8.73925 1.86446
11.1379 -8.74621 1.86416
11.9912 -8.76592 1.86489
-12.018 -5.47481 1.86582
-11.1331 -5.46934 1.86486
-8.73747 -5.46903 1.86529
-5.47018 -5.47017 1.86593
-1.86646 -5.47078 1.86647
1.86645 -5.47074 1.86646
5.47012 -5.4702 1.86596
8.73751 -5.46902 1.8653
11.1331 -5.46934 1.86485
12.018 -5.47481 1.86585
-12.0301 -1.86634 1.86634
-11.1326 -1.86534 1.8653
-8.73712 -1.86568 1.86565
-5.47078 -1.86647 1.86643
-1.86684 -1.86686 1.86683
1.86685 -1.86676 1.86678
5.47077 -1.86648 1.86645
8.73711 -1.86569 1.86562
11.1326 -1.86535 1.86529
12.0301 -1.86634 1.86634
-12.0301 1.86637 1.86637
-11.1326 1.86536 1.86533
-8.73711 1.86571 1.86565
-5.47076 1.86642 1.86647
-1.86684 1.86686 1.86689
1.86687 1.86691 1.86692
5.4708 1.86639 1.86642
8.73715 1.86575 1.8657
11.1326 1.86535 1.86533
12.0301 1.86638 1.86637
-12.018 5.47481 1.86582
-11.1331 5.46937 1.86485
-8.73747 5.46905 1.86531
-5.47018 5.47014 1.866
-1.86646 5.47076 1.86641
1.86644 5.47084 1.86641
5.47014 5.4701 1.86607
8.73749 5.46908 1.86526
11.1331 5.46937 1.86484
12.018 5.47481 1.86585
-11.9912 8.76587 1.86485
-11.1378 8.74618 1.86414
-8.73926 8.73924 1.86446
-5.46906 8.73751 1.86527
-1.86568 8.73707 1.86567
1.8657 8.73721 1.86568
5.46902 8.73742 1.86521
8.7392 8.73931 1.86451
11.1379 8.74618 1.86418
11.9912 8.76587 1.86487
-11.9652 11.2348 1.86403
-11.1577 11.1577 1.86371
-8.74621 11.1379 1.86415
-5.46934 11.1331 1.86484
-1.86535 11.1326 1.86532
1.86535 11.1327 1.86532
5.46936 11.133 1.86488
8.74618 11.1379 1.8641
11.1577 11.1577 1.86368
11.9652 11.2348 1.86402
-12.0912 12.0912 1.86322
-11.2347 11.9652 1.86405
-8.76592 11.9912 1.86487
-5.47479 12.018 1.86586
-1.86638 12.0301 1.86636
1.86638 12.0302 1.86636
5.47478 12.0179 1.86584
8.76588 11.9913 1.86485
11.2347 11.9652 1.86402
12.0912 12.0912 1.86324
-12.0791 -12.0791 5.4689
-11.2345 -11.952 5.47039
-8.76557 -11.9785 5.47189
-5.47383 -12.0058 5.47378
-1.86587 -12.018 5.47479
1.86589 -12.0181 5.47478
5.47386 -12.0057 5.47377
8.76556 -11.9785 5.47192
11.2345 -11.952 5.47038
12.0791 -12.0791 5.4689
-11.952 -11.2346 5.47039
-11.158 -11.158 5.46751
-8.74648 -11.1381 5.46754
-5.46868 -11.1335 5.46863
-1.86491 -11.1331 5.46931
1.86489 -11.1331 5.4693
5.46866 -11.1335 5.46862
8.74646 -11.1382 5.46755
11.1579 -11.158 5.46751
11.952 -11.2346 5.47039
-11.9785 -8.76558 5.47192
-11.1381 -8.7465 5.46752
-8.73959 -8.73959 5.46723
-5.46839 -8.73779 5.46846
-1.8653 -8.73746 5.469
1.86527 -8.7375 5.46899
5.46842 -8.73778 5.46844
8.73959 -8.7396 5.4672
11.1381 -8.7465 5.46755
11.9785 -8.76557 5.47192
-12.0057 -5.47385 5.47377
-11.1335 -5.46869 5.46869
-8.73778 -5.46839 5.46845
-5.46947 -5.46947 5.46939
-1.86604 -5.47017 5.47019
1.86607 -5.47018 5.47019
5.46954 -5.46947 5.46945
8.73783 -5.46839 5.46847
11.1335 -5.46869 5.46864
12.0058 -5.47384 5.47378
-12.018 -1.86588 5.47477
-11.1331 -1.8649 5.46926
-8.73746 -1.86529 5.46899
-5.47017 -1.86601 5.4702
-1.86645 -1.86645 5.47074
1.86643 -1.86649 5.47071
5.47017 -1.866 5.4702
8.73749 -1.86529 5.46896
11.1331 -1.86491 5.46929
12.018 -1.86589 5.47477
-12.018 1.86587 5.47477
-11.1331 1.86487 5.46929
-8.73747 1.86527 5.46898
-5.47019 1.86604 5.47015
-1.86646 1.86643 5.47081
1.86642 1.8664 5.47082
5.47011 1.86607 5.47012
8.73747 1.86527 5.46897
11.1331 1.86488 5.46934
12.018 1.86585 5.47477
-12.0057 5.47382 5.47382
-11.1335 5.46866 5.46862
-8.73776 5.46838 5.46845
-5.46946 5.46954 5.46949
-1.86601 5.47018 5.4701
1.86609 5.47011 5.47016
5.46954 5.46959 5.46951
8.73785 5.46838 5.46844
11.1335 5.46869 5.4686
12.0058 5.47388 5.47379
-11.9786 8.76555 5.47191
-11.1382 8.74642 5.46751
-8.7396 8.73955 5.46721
-5.4684 8.73781 5.46842
-1.8653 8.7375 5.46898
1.86527 8.73746 5.469
5.46843 8.73785 5.46836
8.73958 8.73952 5.46723
11.1382 8.74645 5.46752
11.9785 8.76561 5.47191
-11.952 11.2346 5.47043
-11.158 11.158 5.46749
-8.74648 11.1381 5.46753
-5.46869 11.1335 5.46862
-1.86491 11.1331 5.4693
1.86491 11.1331 5.46929
5.4687 11.1335 5.46864
8.74645 11.1381 5.46752
11.158 11.158 5.46754
11.952 11.2346 5.47043
-12.0791 12.0791 5.46891
-11.2346 11.952 5.47041
-8.76557 11.9785 5.47189
-5.47384 12.0058 5.47378
-1.86587 12.0181 5.47475
1.8659 12.018 5.47475
5.47387 12.0058 5.47378
8.76562 11.9785 5.4719
11.2346 11.952 5.47041
12.0792 12.0791 5.4689
-12.0513 -12.0513 8.77205
-11.2369 -11.922 8.76838
-8.76554 -11.9501 8.76546
-5.47194 -11.9785 8.76551
-1.8649 -11.9912 8.76587
1.86494 -11.9912 8.76591
5.47193 -11.9785 8.76552