# vtk DataFile Version 3.0 
Lennard-Jones particle simulation 
ASCII 
DATASET UNSTRUCTURED_GRID 
POINTS 2 float 
1.08853 1.08853 1.08853
3.91147 3.91147 3.91147
CELLS 0 0
CELL_TYPES 0
POINT_DATA 2
SCALARS mass float 
LOOKUP_TABLE default 
1
1
VECTORS velocity float 
0.0100283 0.0100283 0.0100283
-0.0100283 -0.0100283 -0.0100283
