# vtk DataFile Version 3.0 
Lennard-Jones particle simulation 
ASCII 
DATASET UNSTRUCTURED_GRID 
POINTS 1000 float 
-3.75406 -3.75406 -3.75406
-2.17571 -3.73606 -3.73606
-0.430386 -3.73679 -3.73679
1.48544 -3.73895 -3.73896
3.48611 -3.74018 -3.74018
5.51389 -3.74018 -3.74018
7.51458 -3.73895 -3.73896
9.43039 -3.73679 -3.73679
11.1757 -3.73606 -3.73606
12.7541 -3.75406 -3.75406
-3.73606 -2.17571 -3.73606
-2.16777 -2.16777 -3.71121
-0.428198 -2.16858 -3.71061
1.48559 -2.16973 -3.71246
3.48604 -2.17036 -3.71363
5.51395 -2.17036 -3.71363
7.51441 -2.16973 -3.71246
9.4282 -2.16858 -3.71061
11.1678 -2.16777 -3.71121
12.7361 -2.17571 -3.73606
-3.73679 -0.430389 -3.73679
-2.16858 -0.428197 -3.71061
-0.429544 -0.429544 -3.70962
1.48444 -0.43076 -3.7113
3.48563 -0.43132 -3.71245
5.51438 -0.43132 -3.71245
7.51556 -0.430759 -3.7113
9.42954 -0.429543 -3.70963
11.1686 -0.428192 -3.71061
12.7368 -0.430383 -3.73679
-3.73896 1.48544 -3.73896
-2.16973 1.48558 -3.71246
-0.43076 1.48445 -3.71131
1.48347 1.48347 -3.71289
3.48524 1.48301 -3.71399
5.51476 1.48301 -3.71399
7.51654 1.48347 -3.7129
9.43076 1.48444 -3.7113
11.1697 1.48559 -3.71246
12.739 1.48543 -3.73895
-3.74018 3.48612 -3.74018
-2.17037 3.48604 -3.71364
-0.431325 3.48563 -3.71245
1.483 3.48524 -3.714
3.48506 3.48506 -3.71506
5.51494 3.48506 -3.71506
7.51699 3.48525 -3.71399
9.43131 3.48563 -3.71246
11.1704 3.48604 -3.71364
12.7402 3.48612 -3.74018
-3.74018 5.51388 -3.74017
-2.17036 5.51396 -3.71363
-0.431322 5.51438 -3.71245
1.48301 5.51475 -3.71398
3.48507 5.51493 -3.71505
5.51494 5.51494 -3.71505
7.517 5.51475 -3.71399
9.43133 5.51438 -3.71245
11.1704 5.51396 -3.71364
12.7402 5.51389 -3.74018
-3.73896 7.51458 -3.73896
-2.16974 7.51442 -3.71247
-0.430766 7.51557 -3.71131
1.48346 7.51653 -3.7129
3.48524 7.51699 -3.714
5.51475 7.51699 -3.714
7.51653 7.51653 -3.71289
9.43076 7.51556 -3.71132
11.1697 7.51441 -3.71246
12.739 7.51457 -3.73896
-3.73679 9.43039 -3.73679
-2.16858 9.42819 -3.71061
-0.429545 9.42955 -3.70963
1.48444 9.43076 -3.71131
3.48563 9.43133 -3.71245
5.51438 9.43133 -3.71245
7.51556 9.43076 -3.71132
9.42954 9.42954 -3.70962
11.1686 9.4282 -3.71061
12.7368 9.43039 -3.73679
-3.73606 11.1757 -3.73607
-2.16777 11.1678 -3.71121
-0.428199 11.1686 -3.71061
1.48558 11.1697 -3.71246
3.48605 11.1704 -3.71364
5.51395 11.1704 -3.71364
7.51442 11.1697 -3.71246
9.4282 11.1686 -3.71061
11.1678 11.1678 -3.71121
12.7361 11.1757 -3.73607
-3.75406 12.7541 -3.75406
-2.17571 12.7361 -3.73606
-0.430387 12.7368 -3.73679
1.48543 12.739 -3.73896
3.48612 12.7402 -3.74018
5.51389 12.7402 -3.74018
7.51457 12.739 -3.73896
9.43039 12.7368 -3.73679
11.1757 12.7361 -3.73607
12.7541 12.7541 -3.75406
-3.73606 -3.73606 -2.17571
-2.16777 -3.71121 -2.16777
-0.428199 -3.71061 -2.16858
1.48559 -3.71246 -2.16974
3.48604 -3.71364 -2.17037
5.51394 -3.71364 -2.17036
7.51442 -3.71246 -2.16974
9.42819 -3.71061 -2.16858
11.1678 -3.71121 -2.16777
12.7361 -3.73606 -2.17571
-3.71121 -2.16777 -2.16777
-2.15483 -2.15483 -2.15483
-0.423243 -2.15452 -2.15452
1.48707 -2.15524 -2.15524
3.48635 -2.15574 -2.15574
5.51365 -2.15574 -2.15574
7.51292 -2.15524 -2.15524
9.42326 -2.15452 -2.15451
11.1548 -2.15483 -2.15483
12.7112 -2.16777 -2.16777
-3.71061 -0.428196 -2.16858
-2.15452 -0.423242 -2.15451
-0.423951 -0.423947 -2.1539
1.48624 -0.424888 -2.15447
3.48602 -0.425352 -2.15494
5.51398 -0.42535 -2.15494
7.51376 -0.42489 -2.15447
9.42395 -0.423947 -2.1539
11.1545 -0.423244 -2.15452
12.7106 -0.428199 -2.16858
-3.71245 1.48558 -2.16973
-2.15524 1.48708 -2.15524
-0.424889 1.48624 -2.15448
1.48539 1.48539 -2.15499
3.48568 1.48498 -2.15543
5.51432 1.48498 -2.15543
7.51462 1.48539 -2.15501
9.42489 1.48624 -2.15447
11.1552 1.48707 -2.15524
12.7125 1.48558 -2.16973
-3.71363 3.48604 -2.17037
-2.15574 3.48635 -2.15574
-0.425351 3.48602 -2.15494
1.48498 3.48567 -2.15544
3.48551 3.48551 -2.15584
5.5145 3.48551 -2.15584
7.51503 3.48567 -2.15543
9.42535 3.48603 -2.15495
11.1557 3.48635 -2.15574
12.7136 3.48604 -2.17037
-3.71365 5.51396 -2.17036
-2.15575 5.51365 -2.15574
-0.425359 5.51398 -2.15495
1.48498 5.51432 -2.15542
3.4855 5.5145 -2.15583
5.5145 5.5145 -2.15583
7.51502 5.51432 -2.15543
9.42535 5.51397 -2.15494
11.1557 5.51364 -2.15574
12.7136 5.51395 -2.17036
-3.71246 7.51442 -2.16974
-2.15524 7.51293 -2.15525
-0.42489 7.51376 -2.15448
1.48538 7.51461 -2.155
3.48568 7.51503 -2.15544
5.51432 7.51503 -2.15544
7.51462 7.51461 -2.15499
9.42489 7.51376 -2.15449
11.1553 7.51293 -2.15525
12.7125 7.51442 -2.16974
-3.71061 9.4282 -2.16858
-2.15452 9.42325 -2.15452
-0.42395 9.42396 -2.1539
1.48624 9.4249 -2.15449
3.48602 9.42536 -2.15494
5.51398 9.42536 -2.15494
7.51376 9.42489 -2.15449
9.42395 9.42396 -2.1539
11.1545 9.42325 -2.15452
12.7106 9.4282 -2.16858
-3.71121 11.1678 -2.16777
-2.15483 11.1548 -2.15484
-0.423244 11.1545 -2.15452
1.48707 11.1553 -2.15525
3.48635 11.1557 -2.15575
5.51365 11.1557 -2.15574
7.51292 11.1553 -2.15524
9.42326 11.1545 -2.15452
11.1548 11.1548 -2.15484
12.7112 11.1678 -2.16777
-3.73607 12.7361 -2.17571
-2.16777 12.7112 -2.16777
-0.428201 12.7106 -2.16859
1.48558 12.7125 -2.16974
3.48604 12.7136 -2.17037
5.51394 12.7136 -2.17037
7.51442 12.7125 -2.16974
9.4282 12.7106 -2.16858
11.1678 12.7112 -2.16777
12.7361 12.7361 -2.17571
-3.73679 -3.73679 -0.430392
-2.16858 -3.71062 -0.428198
-0.429549 -3.70962 -0.429542
1.48444 -3.71132 -0.430764
3.48562 -3.71246 -0.431322
5.51438 -3.71246 -0.431322
7.51556 -3.71131 -0.430763
9.42955 -3.70963 -0.429542
11.1686 -3.71061 -0.428202
12.7368 -3.73679 -0.430391
-3.71062 -2.16858 -0.428198
-2.15452 -2.15452 -0.423244
-0.423952 -2.15389 -0.423948
1.48624 -2.15449 -0.424895
3.48602 -2.15495 -0.42535
5.51398 -2.15495 -0.42535
7.51376 -2.15448 -0.424892
9.42396 -2.1539 -0.423947
11.1545 -2.15452 -0.423246
12.7106 -2.16858 -0.428201
-3.70962 -0.429547 -0.429544
-2.15389 -0.423952 -0.423948
-0.424481 -0.424479 -0.424485
1.48548 -0.425346 -0.425335
3.48571 -0.425782 -0.425783
5.51429 -0.425783 -0.425783
7.51452 -0.425341 -0.425332
9.42448 -0.424487 -0.424491
11.1539 -0.423949 -0.423951
12.7096 -0.429547 -0.429546
-3.71132 1.48444 -0.430762
-2.15449 1.48624 -0.424888
-0.425348 1.48548 -0.42534
1.48466 1.48467 -0.426167
3.48537 1.48427 -0.426597
5.51462 1.48427 -0.426594
7.51534 1.48467 -0.426183
9.42533 1.48547 -0.425331
11.1545 1.48624 -0.42489
12.7113 1.48444 -0.430759
-3.71246 3.48562 -0.431327
-2.15495 3.48602 -0.425355
-0.425785 3.4857 -0.425784
1.48426 3.48538 -0.426606
3.4852 3.48521 -0.427011
5.51479 3.4852 -0.42702
7.51572 3.48538 -0.426594
9.42577 3.48569 -0.425787
11.1549 3.48602 -0.425356
12.7125 3.48562 -0.431327
-3.71246 5.51438 -0.431322
-2.15495 5.51397 -0.425349
-0.425782 5.51429 -0.425786
1.48427 5.51462 -0.426586
3.48521 5.51479 -0.426999
5.51479 5.51479 -0.426993
7.51574 5.51463 -0.4266
9.42578 5.51428 -0.425782
11.1549 5.51398 -0.425348
12.7125 5.51437 -0.431323
-3.7113 7.51555 -0.430768
-2.15447 7.51376 -0.424896
-0.42534 7.51451 -0.425339
1.48467 7.51533 -0.426175
3.48537 7.51573 -0.426604
5.51462 7.51573 -0.426606
7.51533 7.51534 -0.426164
9.42532 7.51451 -0.425345
11.1545 7.51376 -0.424896
12.7113 7.51555 -0.43077
-3.70961 9.42955 -0.429551
-2.15389 9.42396 -0.423949
-0.424475 9.42447 -0.424487
1.48549 9.42533 -0.425346
3.48571 9.42578 -0.425782
5.51429 9.42577 -0.425777
7.51452 9.42534 -0.425352
9.42447 9.42447 -0.42448
11.1539 9.42395 -0.423954
12.7096 9.42954 -0.429548
-3.71061 11.1686 -0.428204
-2.15452 11.1545 -0.42325
-0.423945 11.1539 -0.423949
1.48624 11.1545 -0.424897
3.48602 11.1549 -0.425356
5.51397 11.1549 -0.425356
7.51376 11.1545 -0.424893
9.42396 11.1539 -0.423957
11.1545 11.1545 -0.423248
12.7106 11.1686 -0.428205
-3.73678 12.7368 -0.430393
-2.16857 12.7106 -0.428203
-0.429541 12.7096 -0.429551
1.48445 12.7113 -0.430766
3.48563 12.7125 -0.431326
5.51438 12.7125 -0.431325
7.51556 12.7113 -0.430765
9.42955 12.7096 -0.429551
11.1686 12.7106 -0.428204
12.7368 12.7368 -0.430396
-3.73894 -3.73894 1.48542
-2.16972 -3.71245 1.48558
-0.430752 -3.71131 1.48444
1.48347 -3.71289 1.48346
3.48525 -3.71399 1.48301
5.51475 -3.71399 1.48301
7.51653 -3.71289 1.48346
9.43075 -3.7113 1.48445
11.1697 -3.71245 1.48558
12.7389 -3.73894 1.48543
-3.71245 -2.16972 1.48558
-2.15523 -2.15523 1.48707
-0.424881 -2.15448 1.48623
1.48539 -2.15499 1.48538
3.48568 -2.15543 1.48498
5.51432 -2.15543 1.48498
7.5146 -2.15499 1.48538
9.42488 -2.15447 1.48624
11.1552 -2.15523 1.48707
12.7124 -2.16972 1.48559
-3.71131 -0.430751 1.48444
-2.15448 -0.424881 1.48624
-0.425342 -0.425338 1.48547
1.48467 -0.426161 1.48468
3.48538 -0.426598 1.48427
5.51462 -0.426594 1.48427
7.51533 -0.426166 1.48468
9.42534 -0.425332 1.48547
11.1545 -0.424886 1.48623
12.7113 -0.430753 1.48444
-3.71289 1.48347 1.48346
-2.15499 1.48539 1.48538
-0.42616 1.48467 1.48467
1.48387 1.48388 1.48387
3.48506 1.48347 1.48347
5.51496 1.48347 1.48348
7.51615 1.48387 1.48386
9.42618 1.48468 1.48468
11.155 1.48538 1.48538
12.7129 1.48347 1.48346
-3.71399 3.48525 1.483
-2.15543 3.48568 1.48498
-0.426598 3.48538 1.48426
1.48347 3.48506 1.48347
3.48488 3.48488 1.48308
5.51512 3.48488 1.48307
7.51652 3.48506 1.48348
9.4266 3.48538 1.48426
11.1554 3.48568 1.48498
12.714 3.48526 1.483
-3.71399 5.51476 1.48301
-2.15543 5.51431 1.48498
-0.426599 5.51462 1.48427
1.48347 5.51495 1.48348
3.48487 5.51512 1.4831
5.51511 5.51511 1.4831
7.51652 5.51495 1.48346
9.42659 5.51462 1.48427
11.1554 5.51431 1.48498
12.714 5.51475 1.483
-3.71289 7.51653 1.48346
-2.15499 7.5146 1.48537
-0.426162 7.51534 1.48467
1.48388 7.51614 1.48386
3.48505 7.51652 1.48346
5.51497 7.51653 1.48346
7.51615 7.51614 1.48387
9.42618 7.51534 1.48467
11.155 7.51461 1.48537
12.7129 7.51653 1.48346
-3.71131 9.43075 1.48444
-2.15448 9.42488 1.48624
-0.425345 9.42534 1.48546
1.48466 9.42618 1.48466
3.48537 9.4266 1.48427
5.51462 9.4266 1.48427
7.51533 9.42617 1.48465
9.42533 9.42534 1.48547
11.1545 9.42487 1.48623
12.7113 9.43075 1.48444
-3.71245 11.1697 1.48558
-2.15523 11.1552 1.48707
-0.424883 11.1545 1.48624
1.48539 11.155 1.48537
3.48568 11.1554 1.48498
[...]
POINT_DATA 1000
SCALARS mass float 
LOOKUP_TABLE default 
1
1
1
1
1
1
1
1
1
1
1
1
1
1
1
1
1
1
1
1
1
1
1
1
1
1
1
1
1
1
1
1
1
1
1
1
1
1
1
1
1
1
1
1
1
1
1
1
1
1
1
1
1
1
1
1
1
1
1
1
1
1
1
1
1
1
1
1
1
1
1
1
1
1
1
1
1
1
1
1
1
1
1
1
1
1
1
1
1
1
1
1
1
1
1
1
1
1
1
1
1
1
1
1
1
1
1
1
1
1
1
1
1
1
1
1
1
1
1
1
1
1
1
1
1
1
1
1
1
1
1
1
1
1
1
1
1
1
1
1
1
1
1
1
1
1
1
1
1
1
1
1
1
1
1
1
1
1
1
1
1
1
1
1
1
1
1
1
1
1
1
1
1
1
1
1
1
1
1
1
1
1
1
1
1
1
1
1
1
1
1
1
1
1
1
1
1
1
1
1
1
1
1
1
1
1
1
1
1
1
1
1
1
1
1
1
1
1
1
1
1
1
1
1
1
1
1
1
1
1
1
1
1
1
1
1
1
1
1
1
1
1
1
1
1
1
1
1
1
1
1
1
1
1
1
1
1
1
1
1
1
1
1
1
1
1
1
1
1
1
1
1
1
1
1
1
1
1
1
1
1
1
1
1
1
1
1
1
1
1
1
1
1
1
1
1
1
1
1
1
1
1
1
1
1
1
1
1
1
1
1
1
1
1
1
1
1
1
1
1
1
1
1
1
1
1
1
1
1
1
1
1
1
1
1
1
1
1
1
1
1
1
1
1
1
1
1
1
1
1
1
1
1
1
1
1
1
1
1
1
1
1
1
1
1
1
1
1
1
1
1
1
1
1
1
1
1
1
1
1
1
1
1
1
1
1
1
1
1
1
1
1
1
1
1
1
1
1
1
1
1
1
1
1
1
1
1
1
1
1
1
1
1
1
1
1
1
1
1
1
1
1
1
1
1
1
1
1
1
1
1
1
1
1
1
1
1
1
1
1
1
1
1
1
1
1
1
1
1
1
1
1
1
1
1
1
1
1
1
1
1
1
1
1
1
1
1
1
1
1
1
1
1
1
1
1
1
1
1
1
1
1
1
1
1
1
1
1
1
1
1
1
1
1
1
1
1
1
1
1
1
1
1
1
1
1
1
1
1
1
1
1
1
1
1
1
1
1
1
1
1
1
1
1
1
1
1
1
1
1
1
1
1
1
1
1
1
1
1
1
1
1
1
1
1
1
1
1
1
1
1
1
1
1
1
1
1
1
1
1
1
1
1
1
1
1
1
1
1
1
1
1
1
1
1
1
1
1
1
1
1
1
1
1
1
1
1
1
1
1
1
1
1
1
1
1
1
1
1
1
1
1
1
1
1
1
1
1
1
1
1
1
1
1
1
1
1
1
1
1
1
1
1
1
1
1
1
1
1
1
1
1
1
1
1
1
1
1
1
1
1
1
1
1
1
1
1
1
1
1
1
1
1
1
1
1
1
1
1
1
1
1
1
1
1
1
1
1
1
1
1
1
1
1
1
1
1
1
1
1
1
1
1
1
1
1
1
1
1
1
1
1
1
1
1
1
1
1
1
1
1
1
1
1
1
1
1
1
1
1
1
1
1
1
1
1
1
1
1
1
1
1
1
1
1
1
1
1
1
1
1
1
1
1
1
1
1
1
1
1
1
1
1
1
1
1
1
1
1
1
1
1
1
1
1
1
1
1
1
1
1
1
1
1
1
1
1
1
1
1
1
1
1
1
1
1
1
1
1
1
1
1
1
1
1
1
1
1
1
1
1
1
1
1
1
1
1
1
1
1
1
1
1
1
1
1
1
1
1
1
1
1
1
1
1
1
1
1
1
1
1
1
1
1
1
1
1
1
1
1
1
1
1
1
1
1
1
1
1
1
1
1
1
1
1
1
1
1
1
1
1
1
1
1
1
1
1
1
1
1
1
1
1
1
1
1
1
1
1
1
1
1
1
1
1
1
1
1
1
1
1
1
1
1
1
1
1
1
1
1
1
1
1
1
1
1
1
1
1
1
1
1
1
1
1
1
1
1
1
1
1
1
1
1
1
1
1
1
1
1
1
1
1
1
1
1
1
1
1
1
1
1
1
1
1
1
1
1
1
1
1
1
1
1
1
1
1
1
1
1
1
1
1
1
1
1
1
1
1
1
1
1
1
1
1
1
1
1
1
1
1
1
1
1
1
1
1
1
1
1
1
1
1
1
1
1
1
1
1
1
1
1
1
1
1
1
1
1
1
1
VECTORS velocity float 
-12.3966 -12.3966 -12.3966
-11.1552 -12.3112 -12.3112
-8.71047 -12.3227 -12.3227
-5.45124 -12.3394 -12.3394
-1.85848 -12.3479 -12.3479
1.85851 -12.3479 -12.3479
5.45129 -12.3394 -12.3394
8.71047 -12.3227 -12.3227
11.1552 -12.3112 -12.3112
12.3966 -12.3966 -12.3966
-12.3112 -11.1552 -12.3112
-11.1087 -11.1087 -12.2006
-8.70002 -11.1078 -12.2099
-5.45087 -11.1099 -12.2273
-1.85889 -11.1116 -12.2364
1.85883 -11.1115 -12.2364
5.45088 -11.1099 -12.2273
8.70001 -11.1078 -12.2098
11.1087 -11.1087 -12.2006
12.3112 -11.1552 -12.3112
-12.3227 -8.71049 -12.3227
-11.1078 -8.70002 -12.2099
-8.70217 -8.70216 -12.2182
-5.45393 -8.70436 -12.2352
-1.86012 -8.70538 -12.2442
1.86016 -8.70538 -12.2442
5.45395 -8.70436 -12.2351
8.70216 -8.70216 -12.2183
11.1078 -8.7 -12.2099
12.3227 -8.71046 -12.3227
-12.3394 -5.45124 -12.3394
-11.1099 -5.45088 -12.2273
-8.70437 -5.45391 -12.2352
-5.45653 -5.45653 -12.2516
-1.86131 -5.4577 -12.2604
1.86131 -5.4577 -12.2604
5.45654 -5.45653 -12.2517
8.70436 -5.45393 -12.2352
11.11 -5.45086 -12.2273
12.3394 -5.45125 -12.3394
-12.3479 -1.85845 -12.3479
-11.1116 -1.85887 -12.2364
-8.7054 -1.86012 -12.2442
-5.45771 -1.8613 -12.2605
-1.86185 -1.86184 -12.2691
1.86185 -1.86184 -12.2691
5.45766 -1.8613 -12.2604
8.70535 -1.86012 -12.2442
11.1115 -1.85888 -12.2364
12.3479 -1.85847 -12.3479
-12.3479 1.85845 -12.3479
-11.1115 1.85889 -12.2364
-8.70539 1.86016 -12.2442
-5.4577 1.8613 -12.2604
-1.86181 1.86182 -12.269
1.86184 1.86183 -12.269
5.45772 1.8613 -12.2604
8.70541 1.86016 -12.2442
11.1116 1.85889 -12.2364
12.3479 1.85848 -12.3479
-12.3394 5.45131 -12.3395
-11.11 5.45088 -12.2273
-8.70439 5.454 -12.2352
-5.45654 5.4565 -12.2516
-1.86132 5.45769 -12.2604
1.86127 5.45768 -12.2604
5.45651 5.45651 -12.2516
8.70436 5.45392 -12.2352
11.11 5.45086 -12.2273
12.3394 5.45127 -12.3395
-12.3227 8.71047 -12.3227
-11.1078 8.69999 -12.2099
-8.70217 8.70217 -12.2183
-5.45393 8.70437 -12.2352
-1.86011 8.7054 -12.2442
1.86017 8.7054 -12.2442
5.45395 8.70438 -12.2352
8.70216 8.70216 -12.2182
11.1078 8.70004 -12.2099
12.3227 8.71048 -12.3227
-12.3112 11.1552 -12.3112
-11.1087 11.1086 -12.2006
-8.70003 11.1078 -12.2099
-5.45087 11.1099 -12.2273
-1.85886 11.1116 -12.2364
1.85885 11.1116 -12.2364
5.4509 11.11 -12.2273
8.7 11.1078 -12.2099
11.1086 11.1087 -12.2006
12.3112 11.1552 -12.3112
-12.3966 12.3966 -12.3966
-11.1552 12.3112 -12.3112
-8.71048 12.3227 -12.3227
-5.45125 12.3394 -12.3394
-1.85847 12.3479 -12.3479
1.8585 12.3479 -12.3479
5.45127 12.3394 -12.3395
8.71048 12.3227 -12.3227
11.1552 12.3112 -12.3112
12.3966 12.3966 -12.3966
-12.3112 -12.3112 -11.1552
-11.1087 -12.2006 -11.1087
-8.70003 -12.2099 -11.1078
-5.45087 -12.2273 -11.1099
-1.85889 -12.2364 -11.1116
1.85883 -12.2364 -11.1116
5.4509 -12.2273 -11.1099
8.7 -12.2099 -11.1078
11.1086 -12.2006 -11.1087
12.3112 -12.3112 -11.1552
-12.2006 -11.1087 -11.1087
-11.036 -11.036 -11.036
-8.67695 -11.0298 -11.0298
-5.44504 -11.0302 -11.0302
-1.85777 -11.0313 -11.0313
1.8578 -11.0313 -11.0313
5.44499 -11.0302 -11.0302
8.677 -11.0298 -11.0298
11.0361 -11.036 -11.036
12.2006 -11.1087 -11.1087
-12.2099 -8.70001 -11.1078
-11.0299 -8.67695 -11.0298
-8.6761 -8.67608 -11.0224
-5.44675 -8.67682 -11.0221
-1.85871 -8.67733 -11.0232
1.85869 -8.67732 -11.0232
5.44676 -8.67684 -11.0221
8.6761 -8.67608 -11.0224
11.0298 -8.67696 -11.0298
12.2099 -8.70003 -11.1078
-12.2273 -5.45087 -11.1099
-11.0301 -5.44501 -11.0302
-8.67684 -5.44675 -11.0222
-5.44872 -5.44872 -11.0216
-1.85964 -5.4496 -11.0225
1.85966 -5.4496 -11.0225
5.44874 -5.44872 -11.0217
8.67685 -5.44674 -11.0221
11.0302 -5.44503 -11.0302
12.2273 -5.45088 -11.1099
-12.2364 -1.85888 -11.1116
-11.0313 -1.85777 -11.0313
-8.67732 -1.85869 -11.0232
-5.4496 -1.85969 -11.0225
-1.86014 -1.86015 -11.0233
1.86017 -1.86013 -11.0233
5.44966 -1.8597 -11.0225
8.67733 -1.85867 -11.0232
11.0313 -1.85776 -11.0313
12.2364 -1.85888 -11.1116
-12.2364 1.85887 -11.1115
-11.0313 1.85777 -11.0313
-8.67736 1.85868 -11.0232
-5.44961 1.85969 -11.0225
-1.86017 1.86017 -11.0232
1.86017 1.86016 -11.0232
5.44964 1.85969 -11.0225
8.67734 1.85866 -11.0232
11.0313 1.85775 -11.0313
12.2364 1.85887 -11.1116
-12.2273 5.45089 -11.11
-11.0302 5.44504 -11.0302
-8.67685 5.44674 -11.0221
-5.44872 5.44872 -11.0217
-1.85965 5.44964 -11.0225
1.85967 5.44965 -11.0225
5.44874 5.44872 -11.0216
8.67687 5.44677 -11.0222
11.0302 5.44503 -11.0302
12.2273 5.4509 -11.11
-12.2099 8.70001 -11.1078
-11.0299 8.67699 -11.0298
-8.67609 8.67612 -11.0224
-5.44675 8.67688 -11.0222
-1.85871 8.67734 -11.0232
1.85867 8.67735 -11.0232
5.44675 8.67686 -11.0222
8.67612 8.67613 -11.0224
11.0298 8.67698 -11.0299
12.2099 8.7 -11.1078
-12.2006 11.1087 -11.1087
-11.036 11.0361 -11.0361
-8.67696 11.0298 -11.0298
-5.44505 11.0302 -11.0302
-1.85778 11.0313 -11.0313
1.8578 11.0313 -11.0313
5.44499 11.0302 -11.0302
8.677 11.0298 -11.0299
11.0361 11.0361 -11.0361
12.2006 11.1087 -11.1087
-12.3112 12.3112 -11.1552
-11.1087 12.2006 -11.1087
-8.70004 12.2099 -11.1078
-5.45088 12.2273 -11.11
-1.85889 12.2364 -11.1116
1.85882 12.2364 -11.1116
5.4509 12.2273 -11.11
8.7 12.2099 -11.1078
11.1087 12.2006 -11.1087
12.3112 12.3112 -11.1552
-12.3227 -12.3227 -8.7105
-11.1078 -12.2099 -8.70002
-8.70219 -12.2182 -8.70216
-5.45395 -12.2352 -8.70438
-1.86014 -12.2442 -8.70539
1.86017 -12.2442 -8.70539
5.45396 -12.2352 -8.70438
8.70218 -12.2183 -8.70215
11.1078 -12.2099 -8.70004
12.3227 -12.3227 -8.71049
-12.2099 -11.1078 -8.70002
-11.0299 -11.0299 -8.67696
-8.6761 -11.0224 -8.67609
-5.44676 -11.0222 -8.67686
-1.85871 -11.0232 -8.67732
1.85869 -11.0232 -8.67732
5.44677 -11.0222 -8.67685
8.67613 -11.0224 -8.67608
11.0299 -11.0299 -8.67696
12.2099 -11.1078 -8.70004
-12.2182 -8.70218 -8.70216
-11.0224 -8.6761 -8.67609
-8.67455 -8.67454 -8.67457
-5.44823 -8.67501 -8.67497
-1.85954 -8.6754 -8.6754
1.85952 -8.6754 -8.6754
5.44822 -8.675 -8.67495
8.67455 -8.67458 -8.67459
11.0224 -8.67609 -8.6761
12.2183 -8.70218 -8.70217
-12.2352 -5.45395 -8.70437
-11.0222 -5.44676 -8.67683
-8.67502 -5.44824 -8.67498
-5.45007 -5.45005 -8.67531
-1.8605 -5.45093 -8.67567
1.86047 -5.45094 -8.67565
5.45007 -5.45003 -8.67537
8.67495 -5.44828 -8.67495
11.0221 -5.44676 -8.67684
12.2352 -5.45395 -8.70436
-12.2442 -1.86015 -8.70541
-11.0232 -1.85869 -8.67733
-8.6754 -1.85958 -8.6754
-5.45095 -1.8605 -8.67571
-1.86096 -1.86094 -8.67597
1.86093 -1.86096 -8.67601
5.4509 -1.86048 -8.67565
8.67535 -1.8596 -8.67541
11.0232 -1.8587 -8.67734
12.2442 -1.86013 -8.70541
-12.2442 1.86015 -8.70539
-11.0232 1.85866 -8.67731
-8.6754 1.85953 -8.67541
-5.45093 1.86046 -8.67562
-1.86094 1.86095 -8.67593
1.86095 1.86093 -8.6759
5.45096 1.86051 -8.67568
8.67539 1.85948 -8.6754
11.0232 1.85868 -8.67731
12.2442 1.86013 -8.7054
-12.2352 5.45392 -8.7044
-11.0221 5.44676 -8.67686
-8.67498 5.4482 -8.67498
-5.45006 5.45004 -8.67533
-1.86051 5.45094 -8.67569
1.86047 5.45092 -8.6757
5.45005 5.45007 -8.67529
8.67489 5.4482 -8.675
11.0221 5.44675 -8.67686
12.2351 5.45392 -8.7044
-12.2182 8.70216 -8.70219
-11.0223 8.67613 -8.67608
-8.67452 8.67453 -8.67457
-5.44819 8.67495 -8.67501
-1.85953 8.67537 -8.6754
1.85953 8.67537 -8.67537
5.44823 8.67497 -8.67503
8.67453 8.67452 -8.67454
11.0224 8.67612 -8.6761
12.2183 8.70216 -8.70218
-12.2099 11.1078 -8.70005
-11.0298 11.0298 -8.67697
-8.67607 11.0224 -8.67609
-5.44673 11.0221 -8.67686
-1.85869 11.0232 -8.67733
1.85866 11.0232 -8.67734
5.44677 11.0221 -8.67684
8.67613 11.0223 -8.67612
11.0298 11.0298 -8.67697
12.2099 11.1077 -8.70005
-12.3227 12.3227 -8.71051
-11.1078 12.2099 -8.70004
-8.70215 12.2182 -8.70219
-5.45392 12.2351 -8.70439
-1.86013 12.2442 -8.70541
1.86017 12.2442 -8.7054
5.45394 12.2352 -8.70438
8.70217 12.2182 -8.70219
11.1078 12.2099 -8.70005
12.3227 12.3227 -8.71051
-12.3394 -12.3394 -5.45129
-11.1099 -12.2273 -5.45088
-8.70434 -12.2352 -5.45394
-5.45651 -12.2516 -5.45655
-1.86128 -12.2604 -5.45771
1.86129 -12.2604 -5.45771
5.45651 -12.2516 -5.45656
8.70434 -12.2352 -5.45393
11.1099 -12.2273 -5.45089
12.3394 -12.3394 -5.45129
-12.2273 -11.1099 -5.45089
-11.0301 -11.0301 -5.44504
-8.67681 -11.0221 -5.44681
-5.44871 -11.0216 -5.44876
-1.85965 -11.0225 -5.4496
1.85964 -11.0225 -5.4496
5.44867 -11.0216 -5.44875
8.67679 -11.0221 -5.44674
11.0301 -11.0301 -5.44504
12.2273 -11.1099 -5.45087
-12.2352 -8.70433 -5.45393
-11.0222 -8.67681 -5.44675
-8.67499 -8.67498 -5.44826
-5.45005 -8.67528 -5.45002
-1.8605 -8.67567 -5.45093
1.86049 -8.67565 -5.45093
5.45006 -8.67529 -5.45
8.67498 -8.67495 -5.44828
11.0222 -8.67683 -5.44676
12.2352 -8.70434 -5.45396
-12.2516 -5.45651 -5.45656
-11.0216 -5.44871 -5.44873
-8.67528 -5.45004 -5.45005
-5.45182 -5.45182 -5.45184
-1.86138 -5.45273 -5.4527
1.86146 -5.45271 -5.45269
5.4519 -5.45184 -5.45189
8.67534 -5.45001 -5.44999
11.0216 -5.44873 -5.44875
12.2516 -5.45652 -5.45654
-12.2604 -1.86129 -5.45772
-11.0225 -1.85966 -5.44963
-8.67566 -1.86049 -5.45095
-5.45272 -1.86141 -5.45273
-1.8619 -1.86191 -5.45355
1.86188 -1.86189 -5.45358
5.4527 -1.8614 -5.45268
8.67568 -1.86048 -5.45097
11.0225 -1.85966 -5.44961
12.2604 -1.86126 -5.45772
-12.2604 1.86132 -5.45769
-11.0225 1.85963 -5.4496
-8.67567 1.86049 -5.45093
-5.45272 1.86144 -5.45267
-1.86192 1.86189 -5.4535
1.86187 1.86187 -5.45349
5.45269 1.86143 -5.45274
8.67566 1.86049 -5.45092
11.0225 1.85963 -5.4496
12.2604 1.86128 -5.45771
-12.2516 5.45652 -5.45655
-11.0216 5.44867 -5.44879
-8.67529 5.45008 -5.45003
-5.4518 5.45189 -5.45186
-1.86141 5.45268 -5.45276
1.8615 5.4527 -5.45275
5.45192 5.45186 -5.45182
8.67536 5.45008 -5.45005
11.0217 5.44872 -5.44877
12.2517 5.45652 -5.45656
-12.2352 8.70434 -5.45394
-11.0222 8.6768 -5.44676
-8.67501 8.67497 -5.4483
-5.45007 8.67534 -5.45008
-1.86051 8.67569 -5.45093
1.8605 8.6757 -5.45091
5.45006 8.67532 -5.45011
8.67492 8.67498 -5.44824
11.0221 8.67676 -5.44679
12.2352 8.70436 -5.45395
-12.2273 11.1099 -5.45089
-11.0301 11.0301 -5.44505
-8.67682 11.0221 -5.44676
-5.44871 11.0217 -5.44877
-1.85966 11.0225 -5.4496
1.85963 11.0225 -5.44961
5.44868 11.0216 -5.44874
8.6768 11.0221 -5.44681
11.0301 11.0301 -5.44504
12.2273 11.1099 -5.45089
-12.3394 12.3394 -5.4513
-11.1099 12.2273 -5.45089
-8.70435 12.2352 -5.45396
-5.45652 12.2517 -5.45654
-1.86128 12.2604 -5.45773
1.86129 12.2604 -5.45772
5.45651 12.2516 -5.45655
8.70435 12.2352 -5.45394
11.1099 12.2273 -5.45089
12.3394 12.3394 -5.45129
-12.3479 -12.3479 -1.85852
-11.1116 -12.2364 -1.85888
-8.70539 -12.2442 -1.86015
-5.4577 -12.2604 -1.86133
-1.86183 -12.2691 -1.86185
1.86186 -12.2691 -1.86183
5.45766 -12.2604 -1.86136
8.70538 -12.2442 -1.86016
11.1115 -12.2364 -1.85891
12.3479 -12.3479 -1.85852
-12.2364 -11.1115 -1.85892
-11.0313 -11.0313 -1.85778
-8.67732 -11.0232 -1.85864
-5.4496 -11.0225 -1.85968
-1.86014 -11.0233 -1.86015
1.86018 -11.0233 -1.86015
5.44964 -11.0225 -1.85971
8.67735 -11.0232 -1.85868
11.0313 -11.0313 -1.85777
12.2365 -11.1115 -1.85891
-12.2442 -8.7054 -1.86015
-11.0232 -8.67733 -1.85869
-8.67537 -8.67539 -1.8596
-5.45091 -8.67567 -1.86045
-1.86094 -8.67597 -1.86098
1.86094 -8.67599 -1.86097
5.45092 -8.67565 -1.86045
8.67532 -8.67539 -1.85962
11.0231 -8.67732 -1.85868
12.2441 -8.7054 -1.86013
-12.2604 -5.45772 -1.86132
-11.0225 -5.44961 -1.85965
-8.67567 -5.45093 -1.86048
-5.45272 -5.4527 -1.86145
-1.86191 -5.45354 -1.86189
1.86188 -5.45356 -1.86189
5.45269 -5.4527 -1.86148
8.67569 -5.45095 -1.86044
11.0225 -5.44959 -1.85966
12.2604 -5.4577 -1.86132
-12.2691 -1.86181 -1.86182
-11.0233 -1.86013 -1.86017
-8.67597 -1.86097 -1.86096
-5.45352 -1.86189 -1.86192
-1.86234 -1.86235 -1.86239
1.86236 -1.86238 -1.8624
5.45351 -1.86189 -1.86186
8.67593 -1.86097 -1.86099
11.0232 -1.86014 -1.86017
12.269 -1.86184 -1.86183
-12.269 1.86181 -1.86183
-11.0233 1.86017 -1.86014
-8.67596 1.86094 -1.86096
-5.45352 1.8619 -1.8619
-1.86234 1.86235 -1.86229
1.86235 1.86232 -1.86228
5.45352 1.86189 -1.86191
8.67591 1.86093 -1.86096
11.0232 1.86018 -1.86015
12.269 1.86183 -1.86183
-12.2604 5.45769 -1.86133
-11.0225 5.44964 -1.85972
-8.67566 5.45087 -1.86048
-5.45273 5.4527 -1.86144
-1.8619 5.45347 -1.86195
1.86187 5.45347 -1.86194
5.45268 5.45272 -1.86142
8.6757 5.45087 -1.86051
11.0225 5.44962 -1.85975
12.2604 5.45767 -1.86135
-12.2442 8.70533 -1.8602
-11.0232 8.67731 -1.8587
-8.67537 8.67533 -1.85962
-5.45091 8.67569 -1.8605
-1.86093 8.67594 -1.86096
1.86094 8.67592 -1.86094
5.45092 8.6757 -1.86057
8.67533 8.67531 -1.85959
11.0232 8.67734 -1.85869
12.2441 8.70533 -1.86021
-12.2364 11.1116 -1.8589
-11.0313 11.0313 -1.85783
-8.67731 11.0232 -1.85871
-5.4496 11.0225 -1.85972
-1.86014 11.0232 -1.86019
1.86018 11.0232 -1.86018
5.44963 11.0226 -1.85971
8.67733 11.0231 -1.85871
11.0313 11.0313 -1.85783
12.2364 11.1116 -1.8589
-12.3479 12.3479 -1.85853
-11.1115 12.2364 -1.85891
-8.70538 12.2441 -1.86023
-5.4577 12.2604 -1.86134
-1.86184 12.269 -1.86185
1.86185 12.269 -1.86185
5.45768 12.2605 -1.86135
8.70537 12.2441 -1.8602
11.1115 12.2364 -1.8589
12.3479 12.3479 -1.85855
-12.3479 -12.3479 1.85845
-11.1115 -12.2364 1.85882
-8.70538 -12.2442 1.86013
-5.4577 -12.2604 1.86128
-1.86183 -12.2691 1.86183
1.86184 -12.269 1.86184
5.45766 -12.2604 1.86127
8.70536 -12.2442 1.86015
11.1116 -12.2364 1.85884
12.3479 -12.3479 1.85846
-12.2364 -11.1115 1.85887
-11.0313 -11.0313 1.85776
-8.67734 -11.0232 1.85868
-5.4496 -11.0225 1.8596
-1.86015 -11.0233 1.86013
1.86018 -11.0232 1.86013
5.44965 -11.0225 1.85962
8.67734 -11.0231 1.85873
11.0313 -11.0313 1.85777
12.2365 -11.1115 1.85883
-12.2442 -8.70539 1.86013
-11.0232 -8.67733 1.85871
-8.67538 -8.67538 1.85947
-5.45094 -8.67566 1.86052
-1.86094 -8.67597 1.86093
1.86097 -8.6759 1.86093
5.4509 -8.67567 1.86054
8.67535 -8.67536 1.85946
11.0232 -8.67734 1.85869
12.2442 -8.7054 1.86011
-12.2604 -5.4577 1.86123
-11.0225 -5.4496 1.85961
-8.67565 -5.4509 1.8605
-5.45272 -5.4527 1.86132
-1.86191 -5.45352 1.86192
1.86189 -5.45348 1.86191
5.45266 -5.45274 1.86136
8.67568 -5.45089 1.86051
11.0225 -5.44961 1.8596
12.2604 -5.4577 1.86127
-12.2691 -1.86181 1.86181
-11.0233 -1.86015 1.86011
-8.67596 -1.86094 1.86091
-5.45352 -1.86192 1.86188
-1.86234 -1.86236 1.86233
1.86235 -1.86226 1.86228
5.45352 -1.86193 1.8619
8.67595 -1.86095 1.86088
11.0232 -1.86016 1.8601
12.2691 -1.86181 1.86181
-12.2691 1.86184 1.86184
-11.0233 1.86017 1.86014
-8.67595 1.86097 1.86091
-5.4535 1.86187 1.86192
-1.86234 1.86236 1.86239
1.86237 1.86241 1.86242
5.45354 1.86184 1.86187
8.67599 1.86101 1.86096
11.0232 1.86016 1.86014
12.2691 1.86185 1.86184
-12.2604 5.4577 1.86123
-11.0225 5.44964 1.85959
-8.67566 5.45092 1.86051
-5.45272 5.45268 1.8614
-1.86191 5.45351 1.86186
1.86188 5.45358 1.86186
5.45268 5.45264 1.86146
8.67567 5.45095 1.86046
11.0225 5.44963 1.85959
12.2604 5.4577 1.86126
-12.2442 8.70535 1.86006
-11.0232 8.67732 1.85867
-8.67537 8.67535 1.85946
-5.45093 8.67568 1.86047
-1.86094 8.67592 1.86093
1.86096 8.67604 1.86094
5.45089 8.6756 1.86041
8.67532 8.67542 1.85951
11.0232 8.67731 1.85871
12.2441 8.70535 1.86008
-12.2364 11.1116 1.85881
-11.0313 11.0313 1.85773
-8.67734 11.0232 1.85868
-5.4496 11.0225 1.85958
-1.86016 11.0232 1.86012
1.86016 11.0233 1.86012
5.44962 11.0224 1.85962
8.67731 11.0232 1.85863
11.0313 11.0313 1.85769
12.2364 11.1116 1.8588
-12.3479 12.3479 1.85844
-11.1115 12.2364 1.85883
-8.70539 12.2442 1.86009
-5.45768 12.2604 1.86127
-1.86185 12.269 1.86183
1.86184 12.2691 1.86183
5.45767 12.2603 1.86125
8.70536 12.2442 1.86007
11.1115 12.2364 1.8588
12.3479 12.3479 1.85846
-12.3394 -12.3394 5.45121
-11.1099 -12.2273 5.45083
-8.70434 -12.2352 5.45388
-5.45652 -12.2516 5.45646
-1.86128 -12.2604 5.45768
1.8613 -12.2604 5.45768
5.45654 -12.2516 5.45645
8.70434 -12.2352 5.45391
11.1099 -12.2273 5.45082
12.3394 -12.3394 5.45121
-12.2273 -11.1099 5.45084
-11.0301 -11.0301 5.44494
-8.67682 -11.0222 5.44677
-5.4487 -11.0216 5.44865
-1.85966 -11.0225 5.44957
1.85963 -11.0225 5.44956
5.44868 -11.0216 5.44864
8.67679 -11.0222 5.44678
11.0301 -11.0301 5.44494
12.2272 -11.1099 5.45084
-12.2352 -8.70436 5.45391
-11.0222 -8.67683 5.44675
-8.67498 -8.67498 5.44816
-5.45004 -8.67529 5.45012
-1.8605 -8.67564 5.45087
1.86048 -8.67568 5.45087
5.45007 -8.67529 5.4501
8.67498 -8.675 5.44812
11.0221 -8.67683 5.44678
12.2352 -8.70435 5.45391
-12.2516 -5.45653 5.45645
-11.0216 -5.44872 5.44871
-8.67529 -5.45005 5.4501
-5.4518 -5.45181 5.45172
-1.86143 -5.45271 5.45273
1.86146 -5.45272 5.45273
5.45188 -5.4518 5.45178
8.67534 -5.45005 5.45012
11.0217 -5.44871 5.44866
12.2517 -5.45653 5.45646
-12.2604 -1.86129 5.45767
-11.0225 -1.85965 5.44952
-8.67565 -1.8605 5.45086
-5.45271 -1.8614 5.45274
-1.8619 -1.8619 5.45348
1.86188 -1.86194 5.45345
5.45271 -1.86139 5.45274
8.67567 -1.86049 5.45083
11.0225 -1.85966 5.44955
12.2604 -1.8613 5.45767
-12.2604 1.86129 5.45767
-11.0225 1.85961 5.44956
-8.67566 1.86048 5.45085
-5.45273 1.86144 5.45269
-1.86191 1.86188 5.45355
1.86187 1.86184 5.45356
5.45265 1.86146 5.45266
8.67565 1.86047 5.45084
11.0225 1.85963 5.44961
12.2604 1.86127 5.45767
-12.2516 5.4565 5.4565
-11.0216 5.44868 5.44864
-8.67527 5.45004 5.4501
-5.45179 5.45187 5.45182
-1.86141 5.45272 5.45264
1.86149 5.45265 5.4527
5.45187 5.45192 5.45184
8.67536 5.45003 5.45009
11.0217 5.4487 5.44862
12.2517 5.45657 5.45647
-12.2352 8.70434 5.4539
-11.0222 8.67675 5.44675
-8.67499 8.67495 5.44813
-5.45005 8.67532 5.45007
-1.8605 8.67568 5.45085
1.86047 8.67564 5.45088
5.45008 8.67536 5.45001
8.67497 8.67492 5.44816
11.0222 8.67678 5.44676
12.2352 8.70439 5.4539
-12.2273 11.11 5.45087
-11.0301 11.0301 5.44492
-8.67681 11.0221 5.44676
-5.44871 11.0216 5.44864
-1.85965 11.0225 5.44956
1.85966 11.0225 5.44955
5.44872 11.0217 5.44866
8.67678 11.0221 5.44675
11.0301 11.0301 5.44496
12.2273 11.1099 5.45087
-12.3394 12.3394 5.45121
-11.1099 12.2272 5.45086
-8.70435 12.2352 5.45388
-5.45652 12.2516 5.45646
-1.86128 12.2604 5.45765
1.86131 12.2604 5.45765
5.45655 12.2517 5.45646
8.7044 12.2351 5.45389
11.11 12.2273 5.45085
12.3395 12.3394 5.4512
-12.3227 -12.3227 8.71048
-11.1078 -12.2098 8.69997
-8.70215 -12.2182 8.70208
-5.45393 -12.2352 8.70429