# vtk DataFile Version 3.0 
Lennard-Jones particle simulation 
ASCII 
DATASET UNSTRUCTURED_GRID 
POINTS 1000 float 
-7.67475 -7.67475 -7.67476
-5.76264 -7.62607 -7.62608
-3.22984 -7.6339 -7.63391
-0.26277 -7.64337 -7.64338
2.89037 -7.64795 -7.64795
6.10965 -7.64794 -7.64795
9.2628 -7.64338 -7.64338
12.2298 -7.6339 -7.6339
14.7627 -7.62607 -7.62608
16.6748 -7.67476 -7.67476
-7.62608 -5.76265 -7.62608
-5.74019 -5.74019 -7.56254
-3.22561 -5.73915 -7.56868
-0.262918 -5.7404 -7.57832
2.89006 -5.74138 -7.58312
6.10991 -5.74138 -7.58312
9.26292 -5.7404 -7.57832
12.2256 -5.73915 -7.56867
14.7402 -5.74018 -7.56254
16.6261 -5.76265 -7.62608
-7.6339 -3.22985 -7.6339
-5.73915 -3.22561 -7.56867
-3.22677 -3.22676 -7.57383
-0.264747 -3.22826 -7.58294
2.88934 -3.22901 -7.58763
6.11068 -3.22901 -7.58763
9.26476 -3.22826 -7.58294
12.2268 -3.22676 -7.57384
14.7391 -3.2256 -7.56869
16.6339 -3.22983 -7.63391
-7.64338 -0.262771 -7.64338
-5.74041 -0.262924 -7.57832
-3.22826 -0.264735 -7.58296
-0.266414 -0.266414 -7.5917
2.88861 -0.267198 -7.59624
6.11139 -0.267199 -7.59624
9.26642 -0.266413 -7.59173
12.2283 -0.264744 -7.58294
14.7404 -0.262911 -7.57831
16.6434 -0.262777 -7.64337
-7.64795 2.89038 -7.64795
-5.74139 2.89007 -7.58313
-3.22902 2.88934 -7.58762
-0.267209 2.88862 -7.59626
2.88827 2.88828 -7.60067
6.11173 2.88827 -7.60068
9.26718 2.88862 -7.59623
12.229 2.88934 -7.58764
14.7414 2.89007 -7.58312
16.6479 2.89037 -7.64795
-7.64794 6.10962 -7.64794
-5.74138 6.10994 -7.58311
-3.22902 6.11068 -7.58763
-0.267202 6.11138 -7.5962
2.88829 6.11171 -7.60065
6.11173 6.11172 -7.60064
9.26721 6.11138 -7.59624
12.229 6.11068 -7.58762
14.7414 6.10994 -7.58312
16.648 6.10963 -7.64794
-7.64339 9.2628 -7.64339
-5.74041 9.26293 -7.57834
-3.22828 9.26478 -7.58296
-0.26642 9.2664 -7.59172
2.88861 9.2672 -7.59625
6.11137 9.26719 -7.59625
9.2664 9.2664 -7.5917
12.2283 9.26475 -7.58297
14.7404 9.26291 -7.57833
16.6434 9.26278 -7.64339
-7.6339 12.2298 -7.63391
-5.73915 12.2256 -7.56868
-3.22677 12.2268 -7.57384
-0.264748 12.2283 -7.58297
2.88934 12.229 -7.58762
6.11069 12.229 -7.58762
9.26475 12.2283 -7.58298
12.2268 12.2268 -7.57383
14.7392 12.2256 -7.56868
16.6339 12.2298 -7.63391
-7.62608 14.7627 -7.62608
-5.74019 14.7402 -7.56255
-3.22561 14.7392 -7.56868
-0.26292 14.7404 -7.57833
2.89007 14.7414 -7.58313
6.10992 14.7414 -7.58312
9.26293 14.7404 -7.57833
12.2256 14.7392 -7.56869
14.7402 14.7402 -7.56255
16.6261 14.7627 -7.62608
-7.67476 16.6748 -7.67476
-5.76265 16.6261 -7.62608
-3.22984 16.6339 -7.63391
-0.262776 16.6434 -7.64338
2.89037 16.6479 -7.64795
6.10964 16.6479 -7.64795
9.26278 16.6434 -7.64339
12.2298 16.6339 -7.63391
14.7627 16.6261 -7.62608
16.6748 16.6748 -7.67477
-7.62608 -7.62608 -5.76266
-5.74019 -7.56254 -5.74019
-3.22561 -7.56868 -5.73915
-0.262916 -7.57832 -5.74041
2.89006 -7.58312 -5.74139
6.10991 -7.58312 -5.74138
9.26293 -7.57832 -5.74041
12.2256 -7.56868 -5.73915
14.7402 -7.56254 -5.7402
16.6261 -7.62608 -5.76266
-7.56254 -5.74019 -5.74019
-5.70378 -5.70378 -5.70379
-3.21494 -5.6997 -5.6997
-0.260161 -5.69994 -5.69995
2.89058 -5.70065 -5.70064
6.10944 -5.70065 -5.70064
9.26014 -5.69994 -5.69995
12.215 -5.6997 -5.69969
14.7038 -5.70378 -5.70379
16.5625 -5.74019 -5.74019
-7.56869 -3.2256 -5.73915
-5.69971 -3.21494 -5.69969
-3.21438 -3.21437 -5.69502
-0.261204 -3.21507 -5.69498
2.89004 -3.21553 -5.69566
6.10995 -3.21553 -5.69566
9.26121 -3.21507 -5.69498
12.2144 -3.21437 -5.69503
14.6997 -3.21495 -5.69971
16.5687 -3.22561 -5.73915
-7.57831 -0.262919 -5.74041
-5.69993 -0.260145 -5.69994
-3.21507 -0.261201 -5.69501
-0.262521 -0.262519 -5.69482
2.88945 -0.263152 -5.69542
6.11056 -0.263151 -5.69542
9.26253 -0.26252 -5.69485
12.2151 -0.261197 -5.69498
14.7 -0.260153 -5.69994
16.5783 -0.262921 -5.7404
-7.58312 2.89007 -5.74139
-5.70064 2.89058 -5.70065
-3.21553 2.89005 -5.69566
-0.263154 2.88943 -5.69544
2.88913 2.88913 -5.69595
6.11089 2.88914 -5.69596
9.26319 2.88942 -5.69541
12.2155 2.89006 -5.69568
14.7007 2.89058 -5.70065
16.5831 2.89007 -5.74139
-7.58314 6.10993 -5.74138
-5.70067 6.10942 -5.70064
-3.21555 6.10995 -5.69566
-0.26316 6.11057 -5.69539
2.88911 6.11089 -5.69593
6.11088 6.11088 -5.69592
9.26317 6.11057 -5.69543
12.2155 6.10994 -5.69565
14.7006 6.10941 -5.70065
16.5831 6.10993 -5.74139
-7.57831 9.26293 -5.74042
-5.69993 9.26017 -5.69996
-3.21508 9.26119 -5.69499
-0.262524 9.26252 -5.69485
2.88945 9.26317 -5.69544
6.11056 9.26318 -5.69544
9.26253 9.26252 -5.69482
12.2151 9.26121 -5.69501
14.7 9.26016 -5.69995
16.5783 9.26293 -5.74042
-7.56869 12.2256 -5.73916
-5.69971 12.215 -5.6997
-3.21438 12.2144 -5.69503
-0.261201 12.2151 -5.69501
2.89004 12.2155 -5.69565
6.10994 12.2155 -5.69566
9.2612 12.2151 -5.69502
12.2144 12.2144 -5.69502
14.6997 12.215 -5.69971
16.5687 12.2256 -5.73915
-7.56254 14.7402 -5.7402
-5.70379 14.7038 -5.7038
-3.21495 14.6997 -5.6997
-0.260165 14.7 -5.69996
2.89057 14.7007 -5.70066
6.10943 14.7007 -5.70066
9.26014 14.7 -5.69995
12.215 14.6997 -5.69971
14.7038 14.7038 -5.70379
16.5625 14.7402 -5.7402
-7.62608 16.6261 -5.76266
-5.7402 16.5625 -5.7402
-3.22562 16.5687 -5.73916
-0.262922 16.5783 -5.74041
2.89006 16.5831 -5.74139
6.10991 16.5831 -5.74139
9.26293 16.5783 -5.74042
12.2256 16.5687 -5.73916
14.7402 16.5625 -5.7402
16.6261 16.6261 -5.76266
-7.63391 -7.63391 -3.22985
-5.73916 -7.5687 -3.22561
-3.22678 -7.57382 -3.22676
-0.264756 -7.58297 -3.22827
2.88933 -7.58763 -3.22901
6.11069 -7.58763 -3.22902
9.26476 -7.58295 -3.22827
12.2268 -7.57384 -3.22676
14.7392 -7.56869 -3.22562
16.6339 -7.63391 -3.22985
-7.5687 -5.73916 -3.22561
-5.69971 -5.69972 -3.21494
-3.21439 -5.69501 -3.21438
-0.261209 -5.69501 -3.21508
2.89004 -5.69566 -3.21553
6.10995 -5.69566 -3.21553
9.26121 -5.695 -3.21508
12.2144 -5.69503 -3.21438
14.6997 -5.69971 -3.21495
16.5687 -5.73916 -3.22562
-7.57382 -3.22677 -3.22676
-5.69501 -3.21438 -3.21438
-3.2135 -3.21349 -3.21351
-0.262123 -3.21406 -3.21404
2.88955 -3.21448 -3.21448
6.11044 -3.21448 -3.21448
9.26212 -3.21405 -3.21403
12.2135 -3.21351 -3.21352
14.695 -3.21438 -3.21438
16.5738 -3.22677 -3.22677
-7.58297 -0.264753 -3.22827
-5.69502 -0.261209 -3.21507
-3.21407 -0.262123 -3.21405
-0.263376 -0.263366 -3.21456
2.88896 -0.263998 -3.21496
6.11103 -0.264004 -3.21496
9.26337 -0.263352 -3.21459
12.214 -0.262146 -3.21403
14.695 -0.261208 -3.21507
16.583 -0.264754 -3.22826
-7.58764 2.88932 -3.22903
-5.69567 2.89005 -3.21554
-3.21448 2.88953 -3.21448
-0.26401 2.88896 -3.21499
2.88865 2.88866 -3.21534
6.11133 2.88865 -3.21536
9.26398 2.88896 -3.21496
12.2144 2.88952 -3.21449
14.6957 2.89004 -3.21554
16.5876 2.88933 -3.22903
-7.58765 6.11068 -3.22902
-5.69568 6.10994 -3.21552
-3.21448 6.11044 -3.21449
-0.263995 6.11102 -3.21494
2.88866 6.11135 -3.21531
6.11135 6.11134 -3.2153
9.26401 6.11105 -3.21497
12.2145 6.11042 -3.21448
14.6957 6.10995 -3.21552
16.5876 6.11067 -3.22902
-7.58294 9.26474 -3.22828
-5.69498 9.26121 -3.21508
-3.21405 9.26211 -3.21405
-0.263369 9.26336 -3.21457
2.88895 9.264 -3.21498
6.11103 9.26399 -3.21498
9.26336 9.26338 -3.21455
12.214 9.2621 -3.21406
14.695 9.2612 -3.21509
16.5829 9.26474 -3.22829
-7.57381 12.2268 -3.22678
-5.695 12.2144 -3.21438
-3.21348 12.2135 -3.21351
-0.2621 12.214 -3.21406
2.88956 12.2145 -3.21448
6.11044 12.2145 -3.21446
9.26212 12.214 -3.21407
12.2135 12.2135 -3.21349
14.695 12.2144 -3.21439
16.5738 12.2268 -3.22677
-7.56867 14.7391 -3.22562
-5.6997 14.6997 -3.21496
-3.21437 14.695 -3.21438
-0.26119 14.695 -3.21509
2.89005 14.6957 -3.21554
6.10994 14.6956 -3.21554
9.26121 14.695 -3.21508
12.2144 14.695 -3.2144
14.6997 14.6997 -3.21496
16.5687 14.7391 -3.22562
-7.63389 16.6339 -3.22986
-5.73914 16.5687 -3.22562
-3.22676 16.5738 -3.22678
-0.264738 16.5829 -3.22828
2.88933 16.5876 -3.22902
6.11068 16.5876 -3.22902
9.26475 16.5829 -3.22827
12.2268 16.5738 -3.22678
14.7391 16.5687 -3.22562
16.6339 16.6339 -3.22986
-7.64336 -7.64335 -0.262796
-5.74038 -7.5783 -0.262924
-3.22825 -7.58295 -0.264748
-0.266404 -7.59169 -0.266426
2.88863 -7.59624 -0.267204
6.11138 -7.59624 -0.267205
9.2664 -7.5917 -0.266433
12.2282 -7.58294 -0.264743
14.7404 -7.5783 -0.26293
16.6434 -7.64336 -0.262796
-7.5783 -5.74038 -0.262929
-5.69992 -5.69992 -0.260159
-3.21505 -5.69499 -0.261232
-0.262514 -5.69482 -0.262543
2.88945 -5.69542 -0.263152
6.11055 -5.69542 -0.263156
9.2625 -5.69482 -0.262539
12.215 -5.69498 -0.2612
14.6999 -5.69993 -0.260162
16.5783 -5.74039 -0.262917
-7.58295 -3.22824 -0.264744
-5.69499 -3.21505 -0.261203
-3.21405 -3.21404 -0.262139
-0.263366 -3.21454 -0.263344
2.88896 -3.21496 -0.263997
6.11104 -3.21496 -0.264
9.26337 -3.21455 -0.263337
12.214 -3.21403 -0.262151
14.695 -3.21507 -0.261212
16.583 -3.22825 -0.264761
-7.59169 -0.266403 -0.266429
-5.69481 -0.262516 -0.262525
-3.21454 -0.263355 -0.263364
-0.26458 -0.264578 -0.264594
2.8884 -0.265234 -0.265216
6.11165 -0.265223 -0.265213
9.26463 -0.264594 -0.264621
12.2146 -0.263338 -0.263332
14.6948 -0.262524 -0.262539
16.5917 -0.266407 -0.266421
-7.59623 2.88863 -0.267216
-5.69542 2.88944 -0.26317
-3.21496 2.88896 -0.264008
-0.265231 2.88838 -0.265237
2.88806 2.88806 -0.265836
6.11193 2.88807 -0.265854
9.26522 2.88839 -0.265206
12.215 2.88897 -0.264021
14.6954 2.88944 -0.263162
16.5962 2.88864 -0.267213
-7.59623 6.11139 -0.267197
-5.69542 6.11054 -0.263151
-3.21497 6.11104 -0.263999
-0.265231 6.11163 -0.265201
2.88805 6.11193 -0.26581
6.11192 6.11192 -0.265801
9.26521 6.11163 -0.265239
12.215 6.11104 -0.263995
14.6954 6.11054 -0.263153
16.5962 6.11137 -0.267207
-7.5917 9.2664 -0.266425
-5.69482 9.2625 -0.262556
-3.21455 9.26338 -0.263355
-0.264571 9.26462 -0.264603
2.88838 9.2652 -0.265251
6.11167 9.26522 -0.265248
9.26463 9.2646 -0.264582
12.2146 9.26338 -0.263363
14.6949 9.26252 -0.262551
16.5917 9.26641 -0.266431
-7.58296 12.2282 -0.26475
-5.695 12.215 -0.261209
-3.21406 12.214 -0.262162
-0.263374 12.2146 -0.263381
2.88895 12.215 -0.263999
6.11104 12.215 -0.263986
9.26337 12.2146 -0.263398
12.214 12.214 -0.262132
14.695 12.215 -0.261225
16.5829 12.2283 -0.264754
-7.5783 14.7404 -0.262931
[...]
POINT_DATA 1000
SCALARS mass float 
LOOKUP_TABLE default 
1
1
1
1
1
1
1
1
1
1
1
1
1
1
1
1
1
1
1
1
1
1
1
1
1
1
1
1
1
1
1
1
1
1
1
1
1
1
1
1
1
1
1
1
1
1
1
1
1
1
1
1
1
1
1
1
1
1
1
1
1
1
1
1
1
1
1
1
1
1
1
1
1
1
1
1
1
1
1
1
1
1
1
1
1
1
1
1
1
1
1
1
1
1
1
1
1
1
1
1
1
1
1
1
1
1
1
1
1
1
1
1
1
1
1
1
1
1
1
1
1
1
1
1
1
1
1
1
1
1
1
1
1
1
1
1
1
1
1
1
1
1
1
1
1
1
1
1
1
1
1
1
1
1
1
1
1
1
1
1
1
1
1
1
1
1
1
1
1
1
1
1
1
1
1
1
1
1
1
1
1
1
1
1
1
1
1
1
1
1
1
1
1
1
1
1
1
1
1
1
1
1
1
1
1
1
1
1
1
1
1
1
1
1
1
1
1
1
1
1
1
1
1
1
1
1
1
1
1
1
1
1
1
1
1
1
1
1
1
1
1
1
1
1
1
1
1
1
1
1
1
1
1
1
1
1
1
1
1
1
1
1
1
1
1
1
1
1
1
1
1
1
1
1
1
1
1
1
1
1
1
1
1
1
1
1
1
1
1
1
1
1
1
1
1
1
1
1
1
1
1
1
1
1
1
1
1
1
1
1
1
1
1
1
1
1
1
1
1
1
1
1
1
1
1
1
1
1
1
1
1
1
1
1
1
1
1
1
1
1
1
1
1
1
1
1
1
1
1
1
1
1
1
1
1
1
1
1
1
1
1
1
1
1
1
1
1
1
1
1
1
1
1
1
1
1
1
1
1
1
1
1
1
1
1
1
1
1
1
1
1
1
1
1
1
1
1
1
1
1
1
1
1
1
1
1
1
1
1
1
1
1
1
1
1
1
1
1
1
1
1
1
1
1
1
1
1
1
1
1
1
1
1
1
1
1
1
1
1
1
1
1
1
1
1
1
1
1
1
1
1
1
1
1
1
1
1
1
1
1
1
1
1
1
1
1
1
1
1
1
1
1
1
1
1
1
1
1
1
1
1
1
1
1
1
1
1
1
1
1
1
1
1
1
1
1
1
1
1
1
1
1
1
1
1
1
1
1
1
1
1
1
1
1
1
1
1
1
1
1
1
1
1
1
1
1
1
1
1
1
1
1
1
1
1
1
1
1
1
1
1
1
1
1
1
1
1
1
1
1
1
1
1
1
1
1
1
1
1
1
1
1
1
1
1
1
1
1
1
1
1
1
1
1
1
1
1
1
1
1
1
1
1
1
1
1
1
1
1
1
1
1
1
1
1
1
1
1
1
1
1
1
1
1
1
1
1
1
1
1
1
1
1
1
1
1
1
1
1
1
1
1
1
1
1
1
1
1
1
1
1
1
1
1
1
1
1
1
1
1
1
1
1
1
1
1
1
1
1
1
1
1
1
1
1
1
1
1
1
1
1
1
1
1
1
1
1
1
1
1
1
1
1
1
1
1
1
1
1
1
1
1
1
1
1
1
1
1
1
1
1
1
1
1
1
1
1
1
1
1
1
1
1
1
1
1
1
1
1
1
1
1
1
1
1
1
1
1
1
1
1
1
1
1
1
1
1
1
1
1
1
1
1
1
1
1
1
1
1
1
1
1
1
1
1
1
1
1
1
1
1
1
1
1
1
1
1
1
1
1
1
1
1
1
1
1
1
1
1
1
1
1
1
1
1
1
1
1
1
1
1
1
1
1
1
1
1
1
1
1
1
1
1
1
1
1
1
1
1
1
1
1
1
1
1
1
1
1
1
1
1
1
1
1
1
1
1
1
1
1
1
1
1
1
1
1
1
1
1
1
1
1
1
1
1
1
1
1
1
1
1
1
1
1
1
1
1
1
1
1
1
1
1
1
1
1
1
1
1
1
1
1
1
1
1
1
1
1
1
1
1
1
1
1
1
1
1
1
1
1
1
1
1
1
1
1
1
1
1
1
1
1
1
1
1
1
1
1
1
1
1
1
1
1
1
1
1
1
1
1
1
1
1
1
1
1
1
1
1
1
1
1
1
1
1
1
1
1
1
1
1
1
1
1
1
1
1
1
1
1
1
1
1
1
1
1
1
1
1
1
1
1
1
1
1
1
1
1
1
1
1
1
1
1
1
1
1
1
1
1
1
1
1
1
1
1
1
1
1
1
1
1
1
1
1
1
1
1
1
1
1
1
1
1
1
1
1
1
1
1
VECTORS velocity float 
-12.1404 -12.1404 -12.1404
-11.277 -12.0368 -12.0368
-8.77007 -12.0672 -12.0672
-5.46854 -12.0944 -12.0944
-1.86316 -12.1063 -12.1063
1.86318 -12.1063 -12.1063
5.46859 -12.0944 -12.0944
8.77007 -12.0672 -12.0672
11.277 -12.0368 -12.0368
12.1404 -12.1404 -12.1404
-12.0368 -11.277 -12.0368
-11.236 -11.236 -11.9089
-8.76621 -11.2247 -11.9388
-5.47001 -11.2228 -11.9681
-1.864 -11.2231 -11.981
1.86395 -11.2231 -11.981
5.47002 -11.2228 -11.9681
8.7662 -11.2247 -11.9388
11.236 -11.236 -11.9089
12.0368 -11.277 -12.0368
-12.0672 -8.77009 -12.0672
-11.2247 -8.76621 -11.9388
-8.7636 -8.76359 -11.9658
-5.47158 -8.7637 -11.9935
-1.86481 -8.76405 -12.0059
1.86485 -8.76405 -12.0059
5.4716 -8.7637 -11.9935
8.76358 -8.76359 -11.9658
11.2247 -8.76619 -11.9388
12.0672 -8.77006 -12.0672
-12.0944 -5.46854 -12.0944
-11.2228 -5.47002 -11.9681
-8.76371 -5.47156 -11.9935
-5.47351 -5.47351 -12.0201
-1.86581 -5.47447 -12.0321
1.86581 -5.47447 -12.0321
5.47352 -5.47351 -12.0201
8.7637 -5.47158 -11.9935
11.2228 -5.47 -11.9681
12.0944 -5.46856 -12.0944
-12.1063 -1.86313 -12.1063
-11.2231 -1.86398 -11.981
-8.76407 -1.86481 -12.0059
-5.47448 -1.86581 -12.0322
-1.86629 -1.86628 -12.044
1.8663 -1.86628 -12.044
5.47443 -1.8658 -12.0321
8.76402 -1.86481 -12.006
11.2231 -1.86399 -11.981
12.1062 -1.86314 -12.1063
-12.1062 1.86313 -12.1062
-11.2231 1.864 -11.981
-8.76406 1.86484 -12.0059
-5.47447 1.8658 -12.0321
-1.86626 1.86626 -12.0439
1.86629 1.86627 -12.0439
5.47448 1.8658 -12.0321
8.76408 1.86484 -12.0059
11.2231 1.864 -11.981
12.1063 1.86315 -12.1063
-12.0944 5.46861 -12.0944
-11.2228 5.47003 -11.9681
-8.76373 5.47165 -11.9935
-5.47352 5.47348 -12.0201
-1.86581 5.47446 -12.0321
1.86577 5.47445 -12.0322
5.47348 5.47349 -12.0201
8.76371 5.47157 -11.9935
11.2228 5.46999 -11.9681
12.0944 5.46857 -12.0944
-12.0672 8.77006 -12.0672
-11.2247 8.76618 -11.9388
-8.7636 8.76359 -11.9658
-5.47158 8.76372 -11.9935
-1.8648 8.76407 -12.0059
1.86485 8.76407 -12.0059
5.4716 8.76372 -11.9935
8.76359 8.7636 -11.9658
11.2247 8.76623 -11.9388
12.0672 8.77008 -12.0672
-12.0368 11.277 -12.0368
-11.236 11.236 -11.9089
-8.76621 11.2247 -11.9388
-5.47001 11.2228 -11.9681
-1.86398 11.2231 -11.9811
1.86396 11.2231 -11.981
5.47003 11.2228 -11.9681
8.76619 11.2247 -11.9389
11.236 11.236 -11.9089
12.0368 11.277 -12.0368
-12.1404 12.1404 -12.1404
-11.277 12.0368 -12.0368
-8.77008 12.0672 -12.0672
-5.46855 12.0944 -12.0944
-1.86315 12.1063 -12.1063
1.86317 12.1063 -12.1063
5.46857 12.0944 -12.0944
8.77008 12.0672 -12.0672
11.277 12.0368 -12.0368
12.1404 12.1404 -12.1404
-12.0368 -12.0368 -11.277
-11.236 -11.9089 -11.236
-8.76622 -11.9388 -11.2247
-5.47 -11.9681 -11.2228
-1.864 -11.981 -11.2231
1.86395 -11.981 -11.2231
5.47004 -11.9681 -11.2228
8.76619 -11.9388 -11.2247
11.236 -11.9089 -11.236
12.0368 -12.0368 -11.277
-11.9089 -11.236 -11.236
-11.1671 -11.1671 -11.1671
-8.75215 -11.149 -11.149
-5.46708 -11.1451 -11.1451
-1.86362 -11.145 -11.145
1.86364 -11.145 -11.145
5.46703 -11.1451 -11.1451
8.7522 -11.149 -11.149
11.1672 -11.1671 -11.1671
11.9089 -11.236 -11.236
-11.9388 -8.7662 -11.2247
-11.149 -8.75215 -11.149
-8.74588 -8.74586 -11.1304
-5.46706 -8.74419 -11.1264
-1.86407 -8.74392 -11.1263
1.86405 -8.74391 -11.1263
5.46707 -8.7442 -11.1264
8.74588 -8.74586 -11.1305
11.149 -8.75216 -11.149
11.9388 -8.76621 -11.2247
-11.9681 -5.47001 -11.2228
-11.1451 -5.46705 -11.1451
-8.74421 -5.46706 -11.1264
-5.46826 -5.46826 -11.1222
-1.86479 -5.4689 -11.122
1.8648 -5.4689 -11.122
5.46828 -5.46826 -11.1222
8.74422 -5.46705 -11.1264
11.1451 -5.46706 -11.1451
11.9681 -5.47001 -11.2228
-11.981 -1.86399 -11.2231
-11.145 -1.86362 -11.145
-8.74391 -1.86405 -11.1263
-5.4689 -1.86484 -11.1221
-1.86522 -1.86523 -11.1217
1.86525 -1.86521 -11.1217
5.46896 -1.86485 -11.122
8.74393 -1.86403 -11.1263
11.145 -1.86361 -11.145
11.9811 -1.86399 -11.2231
-11.9811 1.86398 -11.2231
-11.145 1.86361 -11.145
-8.74395 1.86404 -11.1263
-5.46892 1.86483 -11.122
-1.86525 1.86525 -11.1217
1.86525 1.86524 -11.1217
5.46895 1.86483 -11.122
8.74393 1.86402 -11.1263
11.145 1.8636 -11.145
11.9811 1.86398 -11.2231
-11.9681 5.47003 -11.2228
-11.1451 5.46708 -11.1451
-8.74422 5.46705 -11.1264
-5.46826 5.46825 -11.1222
-1.8648 5.46895 -11.122
1.86481 5.46896 -11.1221
5.46828 5.46826 -11.1222
8.74423 5.46707 -11.1264
11.1451 5.46707 -11.1451
11.9681 5.47004 -11.2228
-11.9388 8.7662 -11.2247
-11.149 8.75219 -11.149
-8.74587 8.74591 -11.1305
-5.46706 8.74424 -11.1264
-1.86407 8.74393 -11.1263
1.86403 8.74394 -11.1263
5.46706 8.74423 -11.1264
8.7459 8.74591 -11.1304
11.149 8.75218 -11.149
11.9388 8.76619 -11.2247
-11.9089 11.236 -11.236
-11.1672 11.1672 -11.1672
-8.75216 11.149 -11.149
-5.46709 11.1451 -11.1451
-1.86362 11.145 -11.145
1.86364 11.145 -11.145
5.46703 11.1451 -11.1451
8.7522 11.149 -11.149
11.1672 11.1672 -11.1672
11.9089 11.236 -11.236
-12.0368 12.0368 -11.277
-11.236 11.9089 -11.236
-8.76622 11.9388 -11.2247
-5.47001 11.9681 -11.2228
-1.864 11.9811 -11.2231
1.86394 11.9811 -11.2231
5.47004 11.9681 -11.2228
8.76619 11.9388 -11.2247
11.236 11.9089 -11.236
12.0368 12.0368 -11.277
-12.0672 -12.0672 -8.77009
-11.2247 -11.9389 -8.76621
-8.76362 -11.9658 -8.76358
-5.4716 -11.9935 -8.76372
-1.86482 -12.0059 -8.76406
1.86486 -12.0059 -8.76406
5.47161 -11.9935 -8.76372
8.76361 -11.9658 -8.76358
11.2247 -11.9388 -8.76622
12.0672 -12.0672 -8.77009
-11.9389 -11.2247 -8.76621
-11.149 -11.149 -8.75215
-8.74588 -11.1304 -8.74587
-5.46707 -11.1264 -8.74423
-1.86407 -11.1263 -8.74391
1.86405 -11.1263 -8.74391
5.46708 -11.1264 -8.74421
8.74591 -11.1305 -8.74586
11.149 -11.149 -8.75217
11.9389 -11.2247 -8.76622
-11.9658 -8.76361 -8.76359
-11.1304 -8.74587 -8.74587
-8.73931 -8.73931 -8.73933
-5.46692 -8.73759 -8.73755
-1.86444 -8.73728 -8.73728
1.86442 -8.73728 -8.73728
5.46691 -8.73758 -8.73754
8.73931 -8.73934 -8.73936
11.1304 -8.74587 -8.74588
11.9658 -8.76361 -8.7636
-11.9935 -5.4716 -8.7637
-11.1264 -5.46707 -8.74419
-8.7376 -5.46692 -8.73756
-5.46806 -5.46804 -8.73584
-1.8652 -5.4687 -8.73554
1.86517 -5.46871 -8.73553
5.46806 -5.46801 -8.7359
8.73752 -5.46696 -8.73753
11.1264 -5.46707 -8.74421
11.9935 -5.4716 -8.7637
-12.006 -1.86484 -8.76408
-11.1263 -1.86405 -8.74393
-8.73728 -1.86449 -8.73729
-5.46872 -1.8652 -8.73558
-1.86561 -1.86559 -8.73521
1.86558 -1.86561 -8.73525
5.46867 -1.86519 -8.73553
8.73724 -1.8645 -8.73729
11.1263 -1.86406 -8.74393
12.0059 -1.86482 -8.76408
-12.006 1.86484 -8.76406
-11.1263 1.86402 -8.74391
-8.73728 1.86443 -8.7373
-5.4687 1.86516 -8.7355
-1.86559 1.8656 -8.73517
1.8656 1.86558 -8.73514
5.46873 1.86522 -8.73555
8.73727 1.86439 -8.73728
11.1263 1.86404 -8.7439
12.006 1.86482 -8.76406
-11.9935 5.47157 -8.76374
-11.1264 5.46707 -8.74422
-8.73756 5.46689 -8.73756
-5.46804 5.46803 -8.73586
-1.86522 5.46871 -8.73556
1.86518 5.46869 -8.73557
5.46803 5.46806 -8.73582
8.73747 5.46689 -8.73758
11.1264 5.46706 -8.74422
11.9934 5.47157 -8.76375
-11.9658 8.7636 -8.76362
-11.1304 8.74592 -8.74586
-8.73929 8.73929 -8.73933
-5.46688 8.73753 -8.73759
-1.86443 8.73725 -8.73728
1.86443 8.73725 -8.73726
5.46692 8.73756 -8.73761
8.73929 8.73928 -8.7393
11.1304 8.7459 -8.74588
11.9658 8.7636 -8.76361
-11.9388 11.2246 -8.76624
-11.149 11.149 -8.75218
-8.74585 11.1304 -8.74587
-5.46704 11.1264 -8.74422
-1.86405 11.1263 -8.74393
1.86402 11.1263 -8.74393
5.46708 11.1264 -8.74421
8.74591 11.1304 -8.74589
11.149 11.149 -8.75217
11.9388 11.2246 -8.76624
-12.0672 12.0672 -8.77011
-11.2246 11.9388 -8.76623
-8.76359 11.9658 -8.76361
-5.47157 11.9934 -8.76373
-1.86482 12.0059 -8.76407
1.86485 12.0059 -8.76407
5.47159 11.9935 -8.76372
8.7636 11.9658 -8.76362
11.2247 11.9388 -8.76624
12.0672 12.0672 -8.77011
-12.0944 -12.0944 -5.46859
-11.2227 -11.9681 -5.47002
-8.76368 -11.9935 -5.47159
-5.47349 -12.0201 -5.47353
-1.86578 -12.0321 -5.47448
1.86579 -12.0321 -5.47448
5.47349 -12.0201 -5.47354
8.76368 -11.9935 -5.47158
11.2227 -11.9681 -5.47003
12.0944 -12.0944 -5.46859
-11.9681 -11.2227 -5.47003
-11.1451 -11.1451 -5.46708
-8.74418 -11.1264 -5.46712
-5.46825 -11.1222 -5.4683
-1.86479 -11.122 -5.4689
1.86479 -11.122 -5.46891
5.46821 -11.1222 -5.4683
8.74416 -11.1264 -5.46706
11.145 -11.1451 -5.46708
11.9681 -11.2227 -5.47
-11.9935 -8.76367 -5.47158
-11.1264 -8.74418 -5.46706
-8.73758 -8.73756 -5.46695
-5.46804 -8.73581 -5.468
-1.8652 -8.73554 -5.4687
1.86519 -8.73553 -5.4687
5.46805 -8.73582 -5.46799
8.73756 -8.73754 -5.46697
11.1264 -8.7442 -5.46708
11.9935 -8.76368 -5.47161
-12.02 -5.4735 -5.47354
-11.1222 -5.46825 -5.46827
-8.73581 -5.46802 -5.46804
-5.46914 -5.46914 -5.46916
-1.8659 -5.46985 -5.46981
1.86597 -5.46983 -5.46981
5.46922 -5.46916 -5.46921
8.73587 -5.46799 -5.46798
11.1222 -5.46827 -5.46829
12.0201 -5.4735 -5.47353
-12.0321 -1.86579 -5.4745
-11.122 -1.86481 -5.46893
-8.73554 -1.8652 -5.46872
-5.46984 -1.86593 -5.46985
-1.86637 -1.86638 -5.47047
1.86635 -1.86636 -5.4705
5.46982 -1.86592 -5.4698
8.73556 -1.86519 -5.46874
11.122 -1.8648 -5.46892
12.0321 -1.86576 -5.47449
-12.0321 1.86582 -5.47446
-11.122 1.86478 -5.4689
-8.73555 1.8652 -5.4687
-5.46984 1.86595 -5.46979
-1.86638 1.86636 -5.47043
1.86634 1.86633 -5.47041
5.46981 1.86595 -5.46986
8.73554 1.86519 -5.46869
11.122 1.86477 -5.46891
12.0321 1.86578 -5.47448
-12.0201 5.47349 -5.47353
-11.1222 5.46822 -5.46833
-8.73582 5.46806 -5.46802
-5.46912 5.46921 -5.46918
-1.86593 5.4698 -5.46988
1.86602 5.46982 -5.46987
5.46924 5.46918 -5.46914
8.73589 5.46807 -5.46803
11.1222 5.46827 -5.46831
12.0201 5.47351 -5.47354
-11.9935 8.76368 -5.47158
-11.1264 8.74416 -5.46707
-8.73759 8.73755 -5.46699
-5.46805 8.73587 -5.46807
-1.86522 8.73557 -5.4687
1.8652 8.73558 -5.46868
5.46805 8.73585 -5.46809
8.7375 8.73756 -5.46694
11.1264 8.74412 -5.4671
11.9935 8.76369 -5.47159
-11.9681 11.2228 -5.47003
-11.1451 11.1451 -5.46708
-8.74419 11.1264 -5.46707
-5.46826 11.1222 -5.46831
-1.8648 11.122 -5.4689
1.86478 11.122 -5.46891
5.46822 11.1222 -5.46829
8.74416 11.1264 -5.46712
11.1451 11.1451 -5.46708
11.9681 11.2227 -5.47002
-12.0944 12.0944 -5.46859
-11.2227 11.9681 -5.47003
-8.76368 11.9935 -5.47161
-5.4735 12.0201 -5.47352
-1.86578 12.0321 -5.4745
1.86579 12.0321 -5.47449
5.47349 12.0201 -5.47353
8.76369 11.9935 -5.47159
11.2227 11.9681 -5.47003
12.0944 12.0944 -5.46859
-12.1063 -12.1063 -1.8632
-11.2231 -11.981 -1.86399
-8.76406 -12.0059 -1.86484
-5.47447 -12.0321 -1.86583
-1.86628 -12.044 -1.86629
1.86631 -12.044 -1.86628
5.47443 -12.0321 -1.86586
8.76405 -12.0059 -1.86485
11.2231 -11.981 -1.86402
12.1062 -12.1063 -1.86319
-11.981 -11.2231 -1.86403
-11.145 -11.145 -1.86363
-8.74391 -11.1263 -1.864
-5.4689 -11.122 -1.86483
-1.86523 -11.1217 -1.86523
1.86526 -11.1217 -1.86523
5.46895 -11.122 -1.86485
8.74394 -11.1263 -1.86405
11.145 -11.1449 -1.86362
11.9811 -11.2231 -1.86402
-12.0059 -8.76407 -1.86484
-11.1263 -8.74392 -1.86405
-8.73725 -8.73727 -1.8645
-5.46868 -8.73555 -1.86515
-1.86559 -8.7352 -1.86562
1.86559 -8.73523 -1.86562
5.46869 -8.73552 -1.86516
8.7372 -8.73727 -1.86452
11.1263 -8.74391 -1.86404
12.0059 -8.76407 -1.86482
-12.0321 -5.47449 -1.86582
-11.122 -5.46892 -1.8648
-8.73554 -5.4687 -1.86519
-5.46984 -5.46981 -1.86597
-1.86638 -5.47046 -1.86636
1.86635 -5.47048 -1.86636
5.46981 -5.46982 -1.866
8.73557 -5.46872 -1.86515
11.122 -5.4689 -1.8648
12.0322 -5.47447 -1.86582
-12.044 -1.86625 -1.86627
-11.1217 -1.86522 -1.86525
-8.7352 -1.86561 -1.86561
-5.47045 -1.86636 -1.86639
-1.86676 -1.86676 -1.8668
1.86678 -1.86679 -1.86682
5.47043 -1.86636 -1.86633
8.73516 -1.86561 -1.86564
11.1216 -1.86522 -1.86525
12.0439 -1.86628 -1.86627
-12.044 1.86625 -1.86627
-11.1217 1.86525 -1.86522
-8.7352 1.86559 -1.8656
-5.47045 1.86636 -1.86637
-1.86675 1.86677 -1.86671
1.86676 1.86674 -1.8667
5.47044 1.86636 -1.86637
8.73515 1.86558 -1.86561
11.1217 1.86526 -1.86523
12.0439 1.86628 -1.86628
-12.0321 5.47447 -1.86583
-11.122 5.46894 -1.86486
-8.73553 5.46864 -1.86519
-5.46985 5.46982 -1.86596
-1.86637 5.47039 -1.86641
1.86634 5.47039 -1.8664
5.46979 5.46984 -1.86595
8.73558 5.46864 -1.86522
11.122 5.46893 -1.86489
12.0321 5.47444 -1.86585
-12.0059 8.76399 -1.86488
-11.1263 8.7439 -1.86406
-8.73725 8.73721 -1.86452
-5.46868 8.73557 -1.8652
-1.86558 8.73518 -1.8656
1.86559 8.73516 -1.86559
5.46869 8.73558 -1.86528
8.73721 8.73719 -1.86449
11.1263 8.74393 -1.86405
12.0059 8.764 -1.8649
-11.981 11.2231 -1.86401
-11.1449 11.145 -1.86367
-8.74391 11.1263 -1.86408
-5.4689 11.122 -1.86486
-1.86522 11.1217 -1.86527
1.86526 11.1216 -1.86526
5.46893 11.1221 -1.86485
8.74392 11.1263 -1.86407
11.145 11.145 -1.86367
11.9811 11.2231 -1.86401
-12.1062 12.1062 -1.86321
-11.2231 11.9811 -1.86402
-8.76405 12.0059 -1.86492
-5.47446 12.0322 -1.86584
-1.86629 12.0439 -1.8663
1.86629 12.0439 -1.86629
5.47446 12.0322 -1.86585
8.76404 12.0059 -1.86489
11.2231 11.9811 -1.86401
12.1063 12.1062 -1.86322
-12.1063 -12.1062 1.86313
-11.2231 -11.981 1.86393
-8.76405 -12.0059 1.86482
-5.47447 -12.0321 1.86578
-1.86628 -12.044 1.86627
1.86629 -12.0439 1.86628
5.47443 -12.0322 1.86577
8.76403 -12.0059 1.86484
11.2231 -11.9811 1.86396
12.1062 -12.1063 1.86314
-11.981 -11.2231 1.86398
-11.145 -11.145 1.8636
-8.74393 -11.1263 1.86404
-5.46891 -11.122 1.86475
-1.86524 -11.1217 1.86521
1.86526 -11.1217 1.86521
5.46895 -11.122 1.86477
8.74393 -11.1263 1.86409
11.145 -11.145 1.86362
11.9811 -11.2231 1.86394
-12.0059 -8.76406 1.86482
-11.1263 -8.74392 1.86407
-8.73726 -8.73727 1.86437
-5.46871 -8.73553 1.86522
-1.86559 -8.7352 1.86558
1.86562 -8.73513 1.86558
5.46867 -8.73554 1.86524
8.73723 -8.73724 1.86437
11.1263 -8.74393 1.86405
12.0059 -8.76407 1.86479
-12.0321 -5.47447 1.86573
-11.122 -5.46891 1.86475
-8.73553 -5.46867 1.8652
-5.46984 -5.46982 1.86584
-1.86638 -5.47044 1.86639
1.86636 -5.4704 1.86638
5.46978 -5.46986 1.86588
8.73557 -5.46866 1.86521
11.122 -5.46891 1.86474
12.0321 -5.47447 1.86577
-12.044 -1.86625 1.86626
-11.1217 -1.86523 1.8652
-8.7352 -1.86559 1.86556
-5.47044 -1.86639 1.86634
-1.86676 -1.86678 1.86675
1.86677 -1.86668 1.8667
5.47044 -1.8664 1.86637
8.73519 -1.8656 1.86553
11.1217 -1.86524 1.86519
12.044 -1.86626 1.86626
-12.044 1.86628 1.86628
-11.1217 1.86525 1.86522
-8.73519 1.86562 1.86556
-5.47042 1.86634 1.86639
-1.86676 1.86678 1.86681
1.86679 1.86682 1.86684
5.47046 1.8663 1.86634
8.73523 1.86566 1.86561
11.1217 1.86524 1.86522
12.044 1.8663 1.86628
-12.0321 5.47448 1.86573
-11.122 5.46894 1.86474
-8.73553 5.46869 1.86522
-5.46984 5.46979 1.86592
-1.86637 5.47043 1.86633
1.86635 5.4705 1.86632
5.4698 5.46976 1.86598
8.73555 5.46872 1.86517
11.122 5.46894 1.86473
12.0321 5.47448 1.86576
-12.0059 8.76401 1.86475
-11.1263 8.74391 1.86403
-8.73725 8.73724 1.86437
-5.4687 8.73556 1.86518
-1.86559 8.73515 1.86558
1.86561 8.73528 1.86559
5.46866 8.73548 1.86512
8.7372 8.7373 1.86441
11.1263 8.7439 1.86406
12.0059 8.76401 1.86477
-11.9811 11.2231 1.86392
-11.145 11.145 1.86358
-8.74393 11.1263 1.86404
-5.46891 11.122 1.86473
-1.86524 11.1217 1.86521
1.86525 11.1218 1.86521
5.46893 11.1219 1.86477
8.7439 11.1263 1.86398
11.145 11.145 1.86354
11.9811 11.2231 1.86391
-12.1062 12.1062 1.86311
-11.2231 11.9811 1.86394
-8.76406 12.0059 1.86478
-5.47445 12.0321 1.86577
-1.86629 12.0439 1.86628
1.86629 12.044 1.86627
5.47445 12.032 1.86575
8.76402 12.006 1.86476
11.2231 11.981 1.86391
12.1062 12.1062 1.86313
-12.0944 -12.0944 5.4685
-11.2227 -11.9681 5.46997
-8.76369 -11.9935 5.47153
-5.4735 -12.0201 5.47344
-1.86578 -12.0321 5.47445
1.8658 -12.0321 5.47445
5.47352 -12.0201 5.47343
8.76368 -11.9935 5.47156
11.2227 -11.9681 5.46996
12.0944 -12.0944 5.46851
-11.9681 -11.2227 5.46997
-11.1451 -11.1451 5.46697
-8.74418 -11.1264 5.46708
-5.46825 -11.1222 5.4682
-1.8648 -11.122 5.46888
1.86478 -11.122 5.46887
5.46822 -11.1222 5.46818
8.74416 -11.1264 5.46709
11.145 -11.1451 5.46698
11.9681 -11.2227 5.46997
-11.9935 -8.7637 5.47156
-11.1264 -8.7442 5.46706
-8.73756 -8.73756 5.46685
-5.46802 -8.73583 5.4681
-1.86521 -8.73552 5.46864
1.86518 -8.73556 5.46864
5.46805 -8.73582 5.46808
8.73756 -8.73758 5.46681
11.1264 -8.7442 5.46709
11.9935 -8.76369 5.47156
-12.0201 -5.47351 5.47343
-11.1222 -5.46826 5.46825
-8.73582 -5.46803 5.46808
-5.46912 -5.46913 5.46904
-1.86595 -5.46983 5.46985
1.86598 -5.46984 5.46985
5.4692 -5.46912 5.46911
8.73587 -5.46803 5.4681
11.1223 -5.46825 5.4682
12.0201 -5.4735 5.47344
-12.0321 -1.86579 5.47444
-11.122 -1.86479 5.46883
-8.73552 -1.8652 5.46863
-5.46983 -1.86592 5.46986
-1.86637 -1.86637 5.4704
1.86635 -1.86641 5.47037
5.46982 -1.86591 5.46986
8.73555 -1.8652 5.4686
11.122 -1.8648 5.46885
12.0321 -1.8658 5.47444
-12.0321 1.86579 5.47444
-11.122 1.86476 5.46886
-8.73553 1.86518 5.46862
-5.46985 1.86596 5.46981
-1.86638 1.86635 5.47047
1.86634 1.86631 5.47048
5.46977 1.86598 5.46978
8.73553 1.86518 5.46861
11.122 1.86477 5.46891
12.0321 1.86577 5.47444
-12.02 5.47348 5.47348
-11.1222 5.46822 5.46818
-8.7358 5.46802 5.46808
-5.46911 5.46919 5.46914
-1.86593 5.46983 5.46976
1.86601 5.46977 5.46982
5.46919 5.46924 5.46916
8.73589 5.46802 5.46807
11.1223 5.46825 5.46816
12.0201 5.47355 5.47345
-11.9935 8.76367 5.47155
-11.1264 8.74412 5.46706
-8.73757 8.73752 5.46683
-5.46803 8.73585 5.46805
-1.86521 8.73556 5.46862
1.86517 8.73552 5.46865
5.46806 8.73589 5.468
8.73755 8.7375 5.46685
11.1264 8.74414 5.46707
11.9935 8.76373 5.47155
-11.9681 11.2228 5.47001
-11.1451 11.145 5.46696
-8.74418 11.1264 5.46707
-5.46825 11.1222 5.46819
-1.8648 11.122 5.46887
1.8648 11.122 5.46886
5.46826 11.1223 5.4682
8.74414 11.1263 5.46706
11.1451 11.145 5.46701
11.9681 11.2228 5.47001
-12.0944 12.0944 5.46851
-11.2227 11.9681 5.46999
-8.76369 11.9935 5.47153
-5.4735 12.0201 5.47344
-1.86578 12.0321 5.47442
1.86581 12.0321 5.47442
5.47353 12.0201 5.47344
8.76374 11.9934 5.47154
11.2228 11.9681 5.46999
12.0944 12.0944 5.4685
-12.0672 -12.0672 8.77008
-11.2247 -11.9388 8.76616
-8.76358 -11.9658 8.7635
-5.47158 -11.9935 8.76363
-1.8648 -12.0059 8.76401
1.86485 -12.0059 8.76405
5.47157 -11.9935 8.76364
8.7636 -11.9658 8.76355
11.2246 -11.9388 8.76614
12.0672 -12.0672 8.77007