# vtk DataFile Version 3.0 
Lennard-Jones particle simulation 
ASCII 
DATASET UNSTRUCTURED_GRID 
POINTS 2 float 
7.62001 7.62001 7.62001
-2.62001 -2.62001 -2.62001
CELLS 0 0
CELL_TYPES 0
POINT_DATA 2
SCALARS mass float 
LOOKUP_TABLE default 
1
1
VECTORS velocity float 
0.365592 0.365592 0.365592
-0.365592 -0.365592 -0.365592
