# vtk DataFile Version 3.0 
Lennard-Jones particle simulation 
ASCII 
DATASET UNSTRUCTURED_GRID 
POINTS 1000 float 
-1.15396 -1.15396 -1.15397
0.167615 -1.15137 -1.15137
1.4078 -1.15149 -1.15149
2.63378 -1.1516 -1.1516
3.87669 -1.15163 -1.15163
5.12331 -1.15163 -1.15163
6.36622 -1.1516 -1.1516
7.5922 -1.15149 -1.15149
8.83239 -1.15137 -1.15137
10.154 -1.15396 -1.15397
-1.15137 0.167616 -1.15137
0.167976 0.167976 -1.14702
1.40763 0.167353 -1.1467
2.63352 0.166826 -1.14662
3.8766 0.166576 -1.14658
5.1234 0.166576 -1.14658
6.36648 0.166826 -1.14662
7.59237 0.167353 -1.14669
8.83202 0.167976 -1.14702
10.1514 0.167615 -1.15137
-1.15149 1.4078 -1.15149
0.167353 1.40763 -1.14669
1.40703 1.40703 -1.14623
2.63311 1.40655 -1.14608
3.87646 1.4063 -1.14603
5.12354 1.4063 -1.14603
6.36689 1.40655 -1.14608
7.59297 1.40703 -1.14623
8.83265 1.40763 -1.1467
10.1515 1.4078 -1.15149
-1.1516 2.63378 -1.1516
0.166826 2.63352 -1.14662
1.40655 2.63311 -1.14608
2.63279 2.63279 -1.14591
3.87636 2.63262 -1.14584
5.12364 2.63262 -1.14584
6.36721 2.63279 -1.14591
7.59345 2.63311 -1.14608
8.83317 2.63352 -1.14661
10.1516 2.63378 -1.1516
-1.15163 3.87669 -1.15163
0.166576 3.8766 -1.14658
1.4063 3.87646 -1.14603
2.63262 3.87635 -1.14584
3.8763 3.8763 -1.14576
5.1237 3.8763 -1.14576
6.36738 3.87636 -1.14584
7.5937 3.87646 -1.14603
8.83342 3.8766 -1.14658
10.1516 3.87669 -1.15163
-1.15163 5.12331 -1.15163
0.166576 5.1234 -1.14658
1.4063 5.12354 -1.14603
2.63262 5.12364 -1.14583
3.8763 5.1237 -1.14576
5.1237 5.1237 -1.14576
6.36738 5.12364 -1.14584
7.5937 5.12354 -1.14603
8.83342 5.1234 -1.14658
10.1516 5.12331 -1.15163
-1.1516 6.36622 -1.1516
0.166825 6.36648 -1.14662
1.40655 6.36689 -1.14608
2.63278 6.36721 -1.14591
3.87635 6.36738 -1.14584
5.12364 6.36738 -1.14584
6.36721 6.36722 -1.14591
7.59345 6.36689 -1.14609
8.83317 6.36648 -1.14662
10.1516 6.36622 -1.1516
-1.15149 7.5922 -1.15149
0.167353 7.59237 -1.14669
1.40703 7.59297 -1.14623
2.63311 7.59345 -1.14608
3.87646 7.5937 -1.14603
5.12354 7.5937 -1.14603
6.36689 7.59345 -1.14609
7.59297 7.59297 -1.14623
8.83265 7.59237 -1.1467
10.1515 7.5922 -1.15149
-1.15137 8.83239 -1.15137
0.167976 8.83202 -1.14702
1.40763 8.83265 -1.1467
2.63352 8.83317 -1.14662
3.8766 8.83342 -1.14658
5.1234 8.83342 -1.14658
6.36648 8.83317 -1.14662
7.59237 8.83265 -1.1467
8.83202 8.83202 -1.14702
10.1514 8.83239 -1.15137
-1.15397 10.154 -1.15397
0.167615 10.1514 -1.15137
1.4078 10.1515 -1.15149
2.63378 10.1516 -1.1516
3.87669 10.1516 -1.15163
5.12331 10.1516 -1.15163
6.36622 10.1516 -1.1516
7.5922 10.1515 -1.15149
8.83239 10.1514 -1.15137
10.154 10.154 -1.15397
-1.15137 -1.15137 0.167614
0.167976 -1.14702 0.167976
1.40763 -1.14669 0.167352
2.63352 -1.14662 0.166825
3.8766 -1.14658 0.166575
5.1234 -1.14658 0.166576
6.36648 -1.14662 0.166825
7.59237 -1.14669 0.167352
8.83202 -1.14702 0.167976
10.1514 -1.15137 0.167615
-1.14702 0.167976 0.167976
0.169127 0.169127 0.169127
1.40788 0.168696 0.168695
2.63349 0.168243 0.168243
3.87657 0.16802 0.16802
5.12343 0.16802 0.16802
6.36651 0.168243 0.168243
7.59212 0.168696 0.168696
8.83087 0.169127 0.169127
10.147 0.167976 0.167975
-1.1467 1.40763 0.167353
0.168695 1.40788 0.168696
1.40738 1.40738 0.168323
2.63313 1.40693 0.167896
3.87646 1.4067 0.167679
5.12355 1.4067 0.167679
6.36687 1.40693 0.167896
7.59262 1.40738 0.168322
8.8313 1.40788 0.168695
10.1467 1.40763 0.167351
-1.14661 2.63352 0.166825
0.168244 2.63349 0.168243
1.40693 2.63313 0.167894
2.63282 2.63282 0.167478
3.87635 2.63266 0.167266
5.12365 2.63266 0.167265
6.36718 2.63282 0.167475
7.59307 2.63313 0.167896
8.83176 2.63349 0.168243
10.1466 2.63352 0.166826
-1.14658 3.8766 0.166575
0.16802 3.87657 0.16802
1.4067 3.87646 0.167679
2.63266 3.87635 0.167263
3.8763 3.8763 0.167058
5.1237 3.8763 0.167057
6.36734 3.87635 0.167266
7.5933 3.87646 0.167678
8.83198 3.87657 0.16802
10.1466 3.8766 0.166576
-1.14658 5.1234 0.166577
0.168018 5.12343 0.168021
1.4067 5.12355 0.167679
2.63266 5.12365 0.167269
3.8763 5.1237 0.167061
5.1237 5.1237 0.167061
6.36734 5.12365 0.167266
7.5933 5.12355 0.167679
8.83198 5.12343 0.168021
10.1466 5.1234 0.166576
-1.14661 6.36648 0.166824
0.168243 6.36651 0.168241
1.40693 6.36687 0.167894
2.63282 6.36718 0.167476
3.87635 6.36734 0.167265
5.12365 6.36734 0.167264
6.36718 6.36718 0.167477
7.59307 6.36687 0.167894
8.83176 6.36651 0.168241
10.1466 6.36648 0.166825
-1.14669 7.59237 0.167352
0.168696 7.59212 0.168696
1.40738 7.59262 0.168322
2.63313 7.59307 0.167893
3.87646 7.5933 0.16768
5.12355 7.5933 0.16768
6.36687 7.59307 0.167892
7.59262 7.59262 0.168323
8.8313 7.59212 0.168696
10.1467 7.59237 0.167352
-1.14702 8.83202 0.167975
0.169127 8.83087 0.169126
1.40788 8.8313 0.168695
2.63349 8.83176 0.168242
3.87657 8.83198 0.168019
5.12343 8.83198 0.16802
6.36651 8.83176 0.168242
7.59212 8.8313 0.168694
8.83087 8.83087 0.169126
10.147 8.83202 0.167975
-1.15137 10.1514 0.167614
0.167975 10.147 0.167975
1.40763 10.1467 0.167351
2.63352 10.1466 0.166825
3.8766 10.1466 0.166575
5.1234 10.1466 0.166575
6.36648 10.1466 0.166825
7.59237 10.1467 0.167351
8.83202 10.147 0.167975
10.1514 10.1514 0.167613
-1.15149 -1.15149 1.4078
0.167352 -1.1467 1.40763
1.40703 -1.14623 1.40703
2.63311 -1.14608 1.40655
3.87646 -1.14603 1.4063
5.12354 -1.14603 1.4063
6.36689 -1.14608 1.40655
7.59297 -1.14623 1.40703
8.83265 -1.1467 1.40763
10.1515 -1.15149 1.4078
-1.1467 0.167352 1.40763
0.168695 0.168695 1.40788
1.40738 0.168323 1.40738
2.63313 0.167893 1.40693
3.87646 0.167678 1.4067
5.12355 0.167679 1.4067
6.36687 0.167895 1.40693
7.59262 0.168322 1.40738
8.83131 0.168696 1.40788
10.1467 0.167352 1.40763
-1.14623 1.40703 1.40703
0.168323 1.40738 1.40738
1.40691 1.40691 1.40691
2.63278 1.40647 1.40648
3.87634 1.40624 1.40624
5.12366 1.40624 1.40624
6.36722 1.40648 1.40648
7.59309 1.40691 1.40691
8.83168 1.40738 1.40738
10.1462 1.40703 1.40703
-1.14609 2.63311 1.40655
0.167894 2.63313 1.40693
1.40647 2.63278 1.40647
2.63248 2.63248 1.40604
3.87624 2.63232 1.40581
5.12376 2.63232 1.40581
6.36752 2.63248 1.40604
7.59353 2.63278 1.40648
8.8321 2.63313 1.40693
10.1461 2.63311 1.40655
-1.14603 3.87646 1.4063
0.167678 3.87646 1.4067
1.40624 3.87634 1.40624
2.63232 3.87624 1.40581
3.87618 3.87619 1.40558
5.12381 3.87619 1.40558
6.36768 3.87624 1.40581
7.59375 3.87634 1.40624
8.83232 3.87645 1.4067
10.146 3.87646 1.4063
-1.14603 5.12354 1.4063
0.167678 5.12355 1.4067
1.40624 5.12366 1.40624
2.63232 5.12376 1.40581
3.87619 5.12382 1.40559
5.12382 5.12381 1.40559
6.36768 5.12376 1.40581
7.59376 5.12366 1.40624
8.83232 5.12355 1.4067
10.146 5.12354 1.4063
-1.14608 6.36689 1.40654
0.167896 6.36687 1.40693
1.40648 6.36722 1.40648
2.63248 6.36752 1.40604
3.87624 6.36768 1.40581
5.12376 6.36768 1.40581
6.36752 6.36752 1.40604
7.59352 6.36722 1.40647
8.8321 6.36687 1.40693
10.1461 6.36689 1.40655
-1.14622 7.59297 1.40703
0.168325 7.59262 1.40738
1.40691 7.59309 1.40691
2.63278 7.59352 1.40647
3.87634 7.59376 1.40624
5.12366 7.59375 1.40624
6.36722 7.59353 1.40647
7.59309 7.59308 1.40691
8.83168 7.59262 1.40738
10.1462 7.59297 1.40703
-1.14669 8.83265 1.40763
0.168697 8.8313 1.40788
1.40738 8.83168 1.40738
2.63313 8.8321 1.40693
3.87646 8.83232 1.4067
5.12355 8.83232 1.4067
6.36687 8.83211 1.40693
7.59262 8.83168 1.40738
8.8313 8.8313 1.40788
10.1467 8.83265 1.40763
-1.15149 10.1515 1.4078
0.167354 10.1467 1.40763
1.40703 10.1462 1.40703
2.63311 10.1461 1.40655
3.87646 10.146 1.4063
5.12354 10.146 1.4063
6.36689 10.1461 1.40655
7.59297 10.1462 1.40703
8.83265 10.1467 1.40763
10.1515 10.1515 1.4078
-1.15159 -1.15159 2.63378
0.166828 -1.14661 2.63352
1.40655 -1.14608 2.63311
2.63279 -1.14591 2.63278
3.87636 -1.14584 2.63262
5.12364 -1.14584 2.63262
6.36721 -1.14591 2.63278
7.59345 -1.14608 2.63311
8.83317 -1.14661 2.63352
10.1516 -1.15159 2.63378
-1.14661 0.166828 2.63352
0.168245 0.168245 2.63349
1.40693 0.167896 2.63313
2.63282 0.167479 2.63282
3.87635 0.167266 2.63266
5.12365 0.167266 2.63266
6.36718 0.167479 2.63282
7.59307 0.167896 2.63313
8.83175 0.168245 2.63349
10.1466 0.166828 2.63352
-1.14608 1.40655 2.63311
0.167895 1.40693 2.63313
1.40648 1.40648 2.63278
2.63248 1.40604 2.63248
3.87624 1.40581 2.63232
5.12376 1.40581 2.63232
6.36752 1.40604 2.63248
7.59353 1.40648 2.63278
8.8321 1.40693 2.63313
10.1461 1.40655 2.63311
-1.14591 2.63279 2.63279
0.167479 2.63282 2.63282
1.40604 2.63248 2.63248
2.63218 2.63219 2.63218
3.87615 2.63202 2.63202
5.12386 2.63202 2.63202
6.36782 2.63218 2.63218
7.59396 2.63248 2.63248
8.83253 2.63282 2.63282
10.1459 2.63279 2.63279
-1.14584 3.87636 2.63262
0.167266 3.87635 2.63266
1.40581 3.87624 2.63232
2.63202 3.87615 2.63202
3.87609 3.87609 2.63186
5.12391 3.87609 2.63186
6.36798 3.87614 2.63202
7.59419 3.87625 2.63232
8.83274 3.87635 2.63266
10.1458 3.87636 2.63262
-1.14584 5.12364 2.63262
0.167266 5.12365 2.63266
1.40581 5.12376 2.63232
2.63202 5.12386 2.63202
3.87609 5.12391 2.63187
5.12391 5.12391 2.63187
6.36798 5.12386 2.63202
7.59419 5.12376 2.63232
8.83274 5.12365 2.63266
10.1458 5.12364 2.63262
-1.14591 6.36721 2.63278
0.167478 6.36718 2.63282
1.40604 6.36752 2.63248
2.63219 6.36782 2.63218
3.87615 6.36798 2.63202
5.12386 6.36798 2.63202
6.36782 6.36782 2.63218
7.59396 6.36752 2.63248
8.83253 6.36718 2.63282
10.1459 6.36721 2.63278
-1.14608 7.59345 2.63311
0.167895 7.59306 2.63313
1.40647 7.59353 2.63278
2.63248 7.59396 2.63248
3.87624 7.59419 2.63232
5.12376 7.59419 2.63232
6.36752 7.59396 2.63248
7.59353 7.59353 2.63278
8.8321 7.59307 2.63313
10.1461 7.59345 2.63311
-1.14661 8.83317 2.63352
0.168245 8.83175 2.63349
1.40693 8.8321 2.63313
2.63282 8.83252 2.63282
3.87635 8.83274 2.63266
5.12365 8.83274 2.63266
6.36718 8.83252 2.63282
7.59306 8.8321 2.63313
8.83175 8.83175 2.63349
10.1466 8.83317 2.63352
-1.1516 10.1516 2.63378
0.166828 10.1466 2.63352
1.40655 10.1461 2.63311
2.63279 10.1459 2.63278
3.87636 10.1458 2.63262
5.12364 10.1458 2.63262
6.36721 10.1459 2.63278
7.59345 10.1461 2.63311
8.83317 10.1466 2.63352
10.1516 10.1516 2.63378
-1.15163 -1.15163 3.87669
0.166577 -1.14658 3.8766
[...]
POINT_DATA 1000
SCALARS mass float 
LOOKUP_TABLE default 
1
1
1
1
1
1
1
1
1
1
1
1
1
1
1
1
1
1
1
1
1
1
1
1
1
1
1
1
1
1
1
1
1
1
1
1
1
1
1
1
1
1
1
1
1
1
1
1
1
1
1
1
1
1
1
1
1
1
1
1
1
1
1
1
1
1
1
1
1
1
1
1
1
1
1
1
1
1
1
1
1
1
1
1
1
1
1
1
1
1
1
1
1
1
1
1
1
1
1
1
1
1
1
1
1
1
1
1
1
1
1
1
1
1
1
1
1
1
1
1
1
1
1
1
1
1
1
1
1
1
1
1
1
1
1
1
1
1
1
1
1
1
1
1
1
1
1
1
1
1
1
1
1
1
1
1
1
1
1
1
1
1
1
1
1
1
1
1
1
1
1
1
1
1
1
1
1
1
1
1
1
1
1
1
1
1
1
1
1
1
1
1
1
1
1
1
1
1
1
1
1
1
1
1
1
1
1
1
1
1
1
1
1
1
1
1
1
1
1
1
1
1
1
1
1
1
1
1
1
1
1
1
1
1
1
1
1
1
1
1
1
1
1
1
1
1
1
1
1
1
1
1
1
1
1
1
1
1
1
1
1
1
1
1
1
1
1
1
1
1
1
1
1
1
1
1
1
1
1
1
1
1
1
1
1
1
1
1
1
1
1
1
1
1
1
1
1
1
1
1
1
1
1
1
1
1
1
1
1
1
1
1
1
1
1
1
1
1
1
1
1
1
1
1
1
1
1
1
1
1
1
1
1
1
1
1
1
1
1
1
1
1
1
1
1
1
1
1
1
1
1
1
1
1
1
1
1
1
1
1
1
1
1
1
1
1
1
1
1
1
1
1
1
1
1
1
1
1
1
1
1
1
1
1
1
1
1
1
1
1
1
1
1
1
1
1
1
1
1
1
1
1
1
1
1
1
1
1
1
1
1
1
1
1
1
1
1
1
1
1
1
1
1
1
1
1
1
1
1
1
1
1
1
1
1
1
1
1
1
1
1
1
1
1
1
1
1
1
1
1
1
1
1
1
1
1
1
1
1
1
1
1
1
1
1
1
1
1
1
1
1
1
1
1
1
1
1
1
1
1
1
1
1
1
1
1
1
1
1
1
1
1
1
1
1
1
1
1
1
1
1
1
1
1
1
1
1
1
1
1
1
1
1
1
1
1
1
1
1
1
1
1
1
1
1
1
1
1
1
1
1
1
1
1
1
1
1
1
1
1
1
1
1
1
1
1
1
1
1
1
1
1
1
1
1
1
1
1
1
1
1
1
1
1
1
1
1
1
1
1
1
1
1
1
1
1
1
1
1
1
1
1
1
1
1
1
1
1
1
1
1
1
1
1
1
1
1
1
1
1
1
1
1
1
1
1
1
1
1
1
1
1
1
1
1
1
1
1
1
1
1
1
1
1
1
1
1
1
1
1
1
1
1
1
1
1
1
1
1
1
1
1
1
1
1
1
1
1
1
1
1
1
1
1
1
1
1
1
1
1
1
1
1
1
1
1
1
1
1
1
1
1
1
1
1
1
1
1
1
1
1
1
1
1
1
1
1
1
1
1
1
1
1
1
1
1
1
1
1
1
1
1
1
1
1
1
1
1
1
1
1
1
1
1
1
1
1
1
1
1
1
1
1
1
1
1
1
1
1
1
1
1
1
1
1
1
1
1
1
1
1
1
1
1
1
1
1
1
1
1
1
1
1
1
1
1
1
1
1
1
1
1
1
1
1
1
1
1
1
1
1
1
1
1
1
1
1
1
1
1
1
1
1
1
1
1
1
1
1
1
1
1
1
1
1
1
1
1
1
1
1
1
1
1
1
1
1
1
1
1
1
1
1
1
1
1
1
1
1
1
1
1
1
1
1
1
1
1
1
1
1
1
1
1
1
1
1
1
1
1
1
1
1
1
1
1
1
1
1
1
1
1
1
1
1
1
1
1
1
1
1
1
1
1
1
1
1
1
1
1
1
1
1
1
1
1
1
1
1
1
1
1
1
1
1
1
1
1
1
1
1
1
1
1
1
1
1
1
1
1
1
1
1
1
1
1
1
1
1
1
1
1
1
1
1
1
1
1
1
1
1
1
1
1
1
1
1
1
1
1
1
1
1
1
1
1
1
1
1
1
1
1
1
1
1
1
1
1
1
1
1
1
1
1
1
1
1
1
1
1
1
1
1
1
1
1
1
1
1
1
1
1
1
1
1
1
1
1
1
1
1
1
1
1
1
1
1
1
1
1
1
1
1
1
1
1
1
1
1
1
VECTORS velocity float 
-12.0653 -12.0653 -12.0653
-10.7185 -12.0147 -12.0147
-8.84378 -12.0123 -12.0123
-5.67138 -12.0134 -12.0135
-1.89364 -12.0145 -12.0145
1.89365 -12.0145 -12.0145
5.67144 -12.0135 -12.0135
8.84378 -12.0123 -12.0123
10.7185 -12.0147 -12.0147
12.0653 -12.0653 -12.0653
-12.0147 -10.7185 -12.0147
-10.7021 -10.7021 -11.9421
-8.83922 -10.7066 -11.9335
-5.67013 -10.7124 -11.932
-1.89314 -10.7155 -11.9322
1.89309 -10.7155 -11.9322
5.67013 -10.7124 -11.932
8.83923 -10.7066 -11.9335
10.7021 -10.7021 -11.9421
12.0147 -10.7185 -12.0147
-12.0123 -8.84379 -12.0123
-10.7066 -8.83922 -11.9335
-8.84479 -8.84482 -11.923
-5.67358 -8.85031 -11.9205
-1.8942 -8.85288 -11.9205
1.89424 -8.85287 -11.9204
5.67358 -8.8503 -11.9205
8.84479 -8.8448 -11.923
10.7066 -8.83919 -11.9335
12.0123 -8.84377 -12.0123
-12.0135 -5.67141 -12.0135
-10.7124 -5.67015 -11.932
-8.8503 -5.67355 -11.9206
-5.67703 -5.67703 -11.9176
-1.8955 -5.67874 -11.9174
1.89548 -5.67875 -11.9174
5.67707 -5.67703 -11.9177
8.85026 -5.67357 -11.9205
10.7125 -5.67013 -11.932
12.0135 -5.6714 -12.0135
-12.0145 -1.89359 -12.0145
-10.7156 -1.89313 -11.9322
-8.8529 -1.89418 -11.9204
-5.67876 -1.89549 -11.9174
-1.89619 -1.89617 -11.917
1.89618 -1.89617 -11.917
5.67875 -1.89549 -11.9174
8.85286 -1.8942 -11.9205
10.7155 -1.89314 -11.9322
12.0145 -1.89362 -12.0145
-12.0145 1.89362 -12.0145
-10.7155 1.89314 -11.9322
-8.85289 1.8942 -11.9205
-5.67875 1.89548 -11.9173
-1.89617 1.89613 -11.917
1.89619 1.89615 -11.917
5.67876 1.89547 -11.9174
8.85291 1.89424 -11.9204
10.7156 1.89315 -11.9322
12.0145 1.89363 -12.0145
-12.0135 5.67142 -12.0135
-10.7125 5.67016 -11.9321
-8.85031 5.67362 -11.9206
-5.67705 5.67704 -11.9177
-1.8955 5.67876 -11.9174
1.89546 5.67874 -11.9174
5.67701 5.67702 -11.9177
8.8503 5.67355 -11.9206
10.7124 5.67011 -11.932
12.0135 5.67142 -12.0135
-12.0123 8.84379 -12.0123
-10.7066 8.83921 -11.9335
-8.8448 8.84485 -11.923
-5.67358 8.85028 -11.9206
-1.89419 8.85289 -11.9204
1.89424 8.85289 -11.9204
5.67357 8.85032 -11.9206
8.84478 8.84479 -11.923
10.7067 8.83923 -11.9335
12.0123 8.84376 -12.0123
-12.0147 10.7185 -12.0147
-10.7021 10.7021 -11.9421
-8.83923 10.7066 -11.9335
-5.67015 10.7124 -11.932
-1.8931 10.7156 -11.9322
1.8931 10.7156 -11.9322
5.67016 10.7124 -11.932
8.83921 10.7067 -11.9335
10.7021 10.7021 -11.9421
12.0147 10.7185 -12.0147
-12.0653 12.0653 -12.0653
-10.7186 12.0147 -12.0147
-8.84379 12.0123 -12.0123
-5.67139 12.0135 -12.0135
-1.89364 12.0145 -12.0145
1.89367 12.0145 -12.0145
5.67141 12.0135 -12.0135
8.84376 12.0122 -12.0123
10.7185 12.0147 -12.0147
12.0653 12.0653 -12.0653
-12.0147 -12.0147 -10.7185
-10.7021 -11.9421 -10.7021
-8.83923 -11.9335 -10.7066
-5.67014 -11.932 -10.7125
-1.89312 -11.9322 -10.7156
1.89307 -11.9322 -10.7156
5.67018 -11.932 -10.7125
8.83919 -11.9335 -10.7066
10.7021 -11.9421 -10.7021
12.0147 -12.0147 -10.7185
-11.9421 -10.7021 -10.7021
-10.6742 -10.6742 -10.6742
-8.82793 -10.6758 -10.6758
-5.66488 -10.6803 -10.6803
-1.89151 -10.6829 -10.6829
1.89151 -10.6829 -10.6829
5.66488 -10.6803 -10.6803
8.82796 -10.6758 -10.6757
10.6742 -10.6742 -10.6742
11.9421 -10.7021 -10.7021
-11.9335 -8.8392 -10.7066
-10.6758 -8.82792 -10.6757
-8.83192 -8.83191 -10.6764
-5.66738 -8.83677 -10.6804
-1.89225 -8.83915 -10.683
1.89224 -8.83914 -10.683
5.66737 -8.83677 -10.6804
8.83195 -8.83192 -10.6764
10.6758 -8.82793 -10.6758
11.9335 -8.83922 -10.7066
-11.932 -5.67014 -10.7124
-10.6803 -5.66486 -10.6803
-8.83674 -5.66737 -10.6805
-5.67057 -5.67051 -10.6844
-1.89338 -5.67209 -10.6868
1.8934 -5.67209 -10.6868
5.67054 -5.67052 -10.6844
8.83676 -5.66736 -10.6805
10.6803 -5.66487 -10.6803
11.932 -5.67015 -10.7124
-11.9322 -1.89314 -10.7156
-10.6829 -1.89151 -10.6829
-8.83916 -1.89224 -10.683
-5.67208 -1.89344 -10.6869
-1.89407 -1.89406 -10.6892
1.8941 -1.89404 -10.6893
5.67211 -1.89345 -10.6868
8.83917 -1.89223 -10.683
10.683 -1.89149 -10.6829
11.9322 -1.89313 -10.7155
-11.9322 1.89313 -10.7155
-10.683 1.89149 -10.6829
-8.83918 1.89224 -10.683
-5.67209 1.89341 -10.6868
-1.8941 1.89408 -10.6892
1.89411 1.89407 -10.6892
5.67209 1.89343 -10.6868
8.83917 1.89222 -10.683
10.6829 1.89146 -10.6829
11.9322 1.89313 -10.7155
-11.932 5.67016 -10.7125
-10.6803 5.66491 -10.6803
-8.83674 5.66734 -10.6805
-5.67058 5.67053 -10.6844
-1.89339 5.67211 -10.6868
1.89341 5.67212 -10.6869
5.67054 5.67053 -10.6844
8.83677 5.66736 -10.6805
10.6803 5.6649 -10.6803
11.932 5.67016 -10.7125
-11.9335 8.83922 -10.7066
-10.6758 8.82794 -10.6758
-8.83192 8.83197 -10.6764
-5.66738 8.83679 -10.6805
-1.89225 8.83918 -10.683
1.89222 8.83918 -10.683
5.66735 8.83678 -10.6805
8.83195 8.83196 -10.6764
10.6758 8.82795 -10.6758
11.9335 8.83922 -10.7066
-11.9421 10.7021 -10.7021
-10.6742 10.6742 -10.6742
-8.82793 10.6758 -10.6758
-5.66489 10.6803 -10.6803
-1.89152 10.6829 -10.683
1.89151 10.683 -10.6829
5.66488 10.6803 -10.6803
8.82796 10.6758 -10.6758
10.6742 10.6742 -10.6742
11.9421 10.7021 -10.7021
-12.0147 12.0147 -10.7186
-10.7021 11.9421 -10.7021
-8.83923 11.9335 -10.7066
-5.67015 11.932 -10.7125
-1.89312 11.9322 -10.7156
1.89306 11.9322 -10.7156
5.67018 11.932 -10.7125
8.8392 11.9335 -10.7066
10.7021 11.9421 -10.7021
12.0147 12.0147 -10.7186
-12.0123 -12.0123 -8.8438
-10.7066 -11.9336 -8.8392
-8.8448 -11.923 -8.84479
-5.67359 -11.9206 -8.8503
-1.89421 -11.9205 -8.85289
1.89425 -11.9205 -8.85288
5.67357 -11.9206 -8.85029
8.84483 -11.923 -8.8448
10.7066 -11.9335 -8.83923
12.0123 -12.0123 -8.8438
-11.9336 -10.7066 -8.83921
-10.6758 -10.6758 -8.82793
-8.83193 -10.6764 -8.83189
-5.66738 -10.6805 -8.83678
-1.89225 -10.683 -8.83914
1.89224 -10.683 -8.83914
5.66737 -10.6805 -8.83678
8.83196 -10.6764 -8.8319
10.6758 -10.6758 -8.82794
11.9336 -10.7066 -8.83923
-11.923 -8.8448 -8.8448
-10.6764 -8.83192 -8.8319
-8.83544 -8.83543 -8.83544
-5.66965 -8.84008 -8.84004
-1.8929 -8.84239 -8.84239
1.8929 -8.8424 -8.84239
5.66962 -8.84006 -8.84004
8.83541 -8.83545 -8.83545
10.6764 -8.83191 -8.83191
11.923 -8.8448 -8.8448
-11.9206 -5.67357 -8.85031
-10.6805 -5.66739 -8.83675
-8.84009 -5.66962 -8.84005
-5.67266 -5.67264 -8.84458
-1.89407 -5.67417 -8.84691
1.89404 -5.67418 -8.84689
5.67269 -5.67263 -8.84464
8.84 -5.66967 -8.84002
10.6805 -5.66738 -8.83676
11.9205 -5.67358 -8.85028
-11.9205 -1.89423 -8.85291
-10.683 -1.89224 -8.83917
-8.84241 -1.89297 -8.84239
-5.67418 -1.89405 -8.84692
-1.89476 -1.89473 -8.84913
1.89474 -1.89474 -8.84916
5.67413 -1.89406 -8.8469
8.84235 -1.89297 -8.84242
10.683 -1.89226 -8.83916
11.9205 -1.8942 -8.85291
-11.9205 1.89423 -8.85289
-10.683 1.89222 -8.83915
-8.84239 1.89291 -8.84241
-5.67416 1.89401 -8.84686
-1.89472 1.89475 -8.8491
1.89474 1.89472 -8.84909
5.67418 1.89408 -8.84692
8.84238 1.89287 -8.84239
10.683 1.89225 -8.83913
11.9205 1.89421 -8.8529
-11.9205 5.67354 -8.85032
-10.6805 5.66735 -8.83678
-8.84006 5.6696 -8.84005
-5.67266 5.67263 -8.84462
-1.89408 5.67416 -8.84692
1.89405 5.67418 -8.84693
5.67266 5.67266 -8.84459
8.84001 5.66963 -8.84006
10.6804 5.66734 -8.83678
11.9205 5.67353 -8.85032
-11.9229 8.8448 -8.84484
-10.6763 8.83197 -8.83191
-8.83542 8.83543 -8.83545
-5.66961 8.84007 -8.84007
-1.8929 8.84236 -8.84239
1.89291 8.84235 -8.84238
5.66963 8.84008 -8.84009
8.8354 8.83538 -8.83542
10.6764 8.83197 -8.83194
11.923 8.8448 -8.84481
-11.9335 10.7066 -8.83924
-10.6758 10.6758 -8.82798
-8.83191 10.6764 -8.83192
-5.66735 10.6804 -8.8368
-1.89224 10.683 -8.83918
1.89221 10.683 -8.83918
5.66738 10.6804 -8.83678
8.83194 10.6763 -8.83194
10.6758 10.6758 -8.82795
11.9335 10.7066 -8.83924
-12.0122 12.0122 -8.84379
-10.7066 11.9335 -8.83924
-8.84479 11.923 -8.84482
-5.67356 11.9205 -8.8503
-1.8942 11.9205 -8.85289
1.89423 11.9205 -8.85289
5.67358 11.9205 -8.85031
8.84478 11.923 -8.84483
10.7066 11.9335 -8.83924
12.0122 12.0122 -8.84381
-12.0134 -12.0134 -5.67143
-10.7124 -11.932 -5.67017
-8.85026 -11.9205 -5.67356
-5.67703 -11.9176 -5.67707
-1.89546 -11.9174 -5.67873
1.89548 -11.9174 -5.67876
5.67703 -11.9176 -5.67707
8.85024 -11.9205 -5.67354
10.7124 -11.932 -5.67017
12.0134 -12.0134 -5.67143
-11.932 -10.7124 -5.67015
-10.6803 -10.6803 -5.66488
-8.83672 -10.6805 -5.66743
-5.67055 -10.6843 -5.67058
-1.89339 -10.6868 -5.67208
1.8934 -10.6868 -5.67208
5.67048 -10.6843 -5.67056
8.83673 -10.6804 -5.6674
10.6802 -10.6803 -5.66488
11.9319 -10.7124 -5.67014
-11.9205 -8.85027 -5.67356
-10.6805 -8.83671 -5.6674
-8.84007 -8.84005 -5.66967
-5.67265 -8.8446 -5.67261
-1.89406 -8.84691 -5.67419
1.89404 -8.84689 -5.67419
5.67267 -8.8446 -5.67261
8.84004 -8.84004 -5.6697
10.6805 -8.83673 -5.66741
11.9206 -8.85027 -5.67359
-11.9176 -5.67702 -5.67704
-10.6843 -5.67055 -5.67054
-8.84456 -5.67263 -5.67265
-5.67562 -5.67558 -5.67563
-1.8951 -5.67716 -5.67712
1.89517 -5.67715 -5.67713
5.67565 -5.67562 -5.67567
8.84467 -5.6726 -5.67262
10.6844 -5.67056 -5.67057
11.9177 -5.67704 -5.67704
-11.9174 -1.89547 -5.67877
-10.6868 -1.89339 -5.6721
-8.84691 -1.89406 -5.67421
-5.67716 -1.89515 -5.67717
-1.89582 -1.89584 -5.67867
1.89581 -1.89581 -5.6787
5.67715 -1.89514 -5.67712
8.84686 -1.89404 -5.67419
10.6868 -1.89339 -5.6721
11.9174 -1.89542 -5.67877
-11.9174 1.89551 -5.67875
-10.6868 1.89337 -5.67208
-8.84691 1.89405 -5.67417
-5.67715 1.89516 -5.67711
-1.89585 1.89583 -5.67862
1.89581 1.89578 -5.67861
5.67713 1.89516 -5.67717
8.84686 1.89404 -5.67419
10.6868 1.89339 -5.67208
11.9174 1.89545 -5.67876
-11.9177 5.677 -5.67707
-10.6843 5.67049 -5.67058
-8.84458 5.67265 -5.67264
-5.67557 5.67564 -5.67564
-1.89518 5.67711 -5.67719
1.89524 5.67714 -5.67719
5.67568 5.67565 -5.6756
8.84465 5.67266 -5.67266
10.6844 5.67052 -5.67057
11.9177 5.67704 -5.67708
-11.9205 8.85027 -5.67355
-10.6805 8.83673 -5.6674
-8.84007 8.84005 -5.66969
-5.67266 8.84469 -5.67268
-1.89408 8.84688 -5.6742
1.89407 8.8469 -5.67414
5.67266 8.84462 -5.67269
8.84001 8.84008 -5.66966
10.6804 8.8367 -5.66744
11.9205 8.85025 -5.67358
-11.932 10.7124 -5.67017
-10.6803 10.6803 -5.66486
-8.83672 10.6805 -5.66739
-5.67056 10.6843 -5.67056
-1.89338 10.6868 -5.67206
1.89338 10.6868 -5.67208
5.67049 10.6843 -5.67055
8.83673 10.6805 -5.66742
10.6803 10.6803 -5.66488
11.932 10.7124 -5.67017
-12.0134 12.0135 -5.67145
-10.7124 11.932 -5.67018
-8.85027 11.9205 -5.67357
-5.67704 11.9177 -5.67707
-1.89545 11.9174 -5.67878
1.89548 11.9174 -5.67877
5.67703 11.9177 -5.67706
8.85024 11.9205 -5.67357
10.7124 11.932 -5.67017
12.0134 12.0135 -5.67142
-12.0145 -12.0145 -1.89366
-10.7155 -11.9322 -1.89311
-8.85289 -11.9204 -1.89422
-5.67875 -11.9174 -1.8955
-1.89617 -11.917 -1.8962
1.89619 -11.917 -1.89616
5.67873 -11.9174 -1.89553
8.85287 -11.9204 -1.89423
10.7155 -11.9322 -1.89315
12.0145 -12.0145 -1.89365
-11.9322 -10.7155 -1.89317
-10.6829 -10.6829 -1.89151
-8.83915 -10.683 -1.89225
-5.67208 -10.6868 -1.89342
-1.89407 -10.6892 -1.89407
1.89409 -10.6892 -1.89407
5.67212 -10.6868 -1.89345
8.83917 -10.683 -1.89223
10.6829 -10.6829 -1.89151
11.9322 -10.7155 -1.89315
-11.9204 -8.85289 -1.89419
-10.683 -8.83915 -1.89224
-8.84239 -8.84239 -1.89295
-5.67414 -8.84692 -1.89404
-1.89474 -8.84915 -1.89472
1.89474 -8.84916 -1.89473
5.67417 -8.8469 -1.89402
8.84233 -8.84238 -1.89297
10.683 -8.83915 -1.89223
11.9204 -8.8529 -1.89418
-11.9174 -5.67877 -1.89549
-10.6868 -5.67211 -1.89339
-8.84692 -5.67419 -1.89404
-5.67714 -5.67713 -1.89517
-1.89583 -5.67863 -1.89583
1.89581 -5.67865 -1.89583
5.67714 -5.67713 -1.89518
8.84688 -5.6742 -1.89399
10.6869 -5.67208 -1.89339
11.9174 -5.67875 -1.89552
-11.917 -1.89616 -1.89617
-10.6892 -1.89405 -1.8941
-8.84916 -1.89473 -1.89473
-5.67861 -1.89581 -1.89584
-1.89648 -1.89648 -1.89649
1.89651 -1.89649 -1.89649
5.67857 -1.89582 -1.89579
8.84913 -1.89474 -1.89479
10.6892 -1.89407 -1.89409
11.9169 -1.89618 -1.89617
-11.917 1.89617 -1.89616
-10.6892 1.89408 -1.89407
-8.84916 1.89473 -1.89475
-5.67861 1.89582 -1.89584
-1.89647 1.8965 -1.8964
1.89651 1.89645 -1.89639
5.67858 1.89581 -1.89585
8.84913 1.89473 -1.89473
10.6892 1.8941 -1.89407
11.9169 1.89618 -1.89618
-11.9174 5.67875 -1.89549
-10.6868 5.67209 -1.89346
-8.84691 5.67413 -1.89406
-5.67716 5.67713 -1.89517
-1.89583 5.67856 -1.89588
1.89582 5.67857 -1.89586
5.67711 5.67716 -1.89517
8.8469 5.67413 -1.89406
10.6868 5.6721 -1.89349
11.9174 5.67873 -1.89553
-11.9204 8.85282 -1.89426
-10.683 8.83916 -1.89226
-8.84239 8.84232 -1.893
-5.67414 8.8469 -1.89407
-1.89472 8.84913 -1.89473
1.89474 8.84913 -1.89475
5.67416 8.8469 -1.89413
8.84233 8.84231 -1.89296
10.683 8.83915 -1.89224
11.9204 8.85284 -1.89427
-11.9322 10.7155 -1.89314
-10.6829 10.6829 -1.89157
-8.83915 10.683 -1.89227
-5.67209 10.6869 -1.89347
-1.89406 10.6892 -1.89412
1.89409 10.6892 -1.8941
5.6721 10.6869 -1.89346
8.83915 10.683 -1.8923
10.6829 10.6829 -1.89154
11.9322 10.7155 -1.89313
-12.0145 12.0145 -1.89368
-10.7155 11.9322 -1.89314
-8.85289 11.9204 -1.89431
-5.67875 11.9174 -1.8955
-1.89618 11.9169 -1.89621
1.89618 11.9169 -1.8962
5.67875 11.9175 -1.89552
8.85286 11.9204 -1.89426
10.7155 11.9322 -1.89313
12.0145 12.0145 -1.89371
-12.0145 -12.0145 1.89358
-10.7155 -11.9322 1.89307
-8.85289 -11.9204 1.8942
-5.67874 -11.9174 1.89546
-1.89617 -11.917 1.89617
1.89616 -11.917 1.89615
5.67875 -11.9174 1.89543
8.85286 -11.9204 1.89422
10.7155 -11.9322 1.89309
12.0145 -12.0145 1.89359
-11.9322 -10.7155 1.89311
-10.6829 -10.6829 1.89148
-8.83915 -10.683 1.8923
-5.67209 -10.6868 1.89336
-1.89408 -10.6892 1.89404
1.89409 -10.6892 1.89404
5.67212 -10.6869 1.89337
8.83917 -10.683 1.89226
10.6829 -10.6829 1.89151
11.9322 -10.7155 1.89309
-11.9204 -8.85289 1.89416
-10.683 -8.83916 1.89225
-8.84238 -8.84238 1.89285
-5.67417 -8.8469 1.89408
-1.89474 -8.84916 1.8947
1.89478 -8.84909 1.89471
5.67411 -8.8469 1.89409
8.84237 -8.84236 1.89286
10.683 -8.83917 1.89223
11.9205 -8.85289 1.89416
-11.9174 -5.67875 1.89538
-10.6868 -5.67209 1.89336
-8.8469 -5.67416 1.89405
-5.67714 -5.67714 1.8951
-1.89585 -5.6786 1.89585
1.89582 -5.67858 1.89583
5.67715 -5.67715 1.89508
8.84686 -5.67414 1.89405
10.6868 -5.67208 1.89333
11.9174 -5.67876 1.89547
-11.917 -1.89616 1.89616
-10.6892 -1.89408 1.89407
-8.84914 -1.89472 1.89472
-5.67861 -1.89583 1.89579
-1.89647 -1.89649 1.89646
1.8965 -1.8964 1.89641
5.67858 -1.89586 1.89583
8.84916 -1.89474 1.89472
10.6892 -1.89409 1.89405
11.9169 -1.89615 1.89615
-11.917 1.89617 1.89616
-10.6892 1.8941 1.89407
-8.84914 1.89477 1.89475
-5.67858 1.8958 1.89585
-1.89648 1.89651 1.89651
1.89651 1.89654 1.89652
5.67862 1.89577 1.89582
8.84916 1.89479 1.89474
10.6892 1.89408 1.89406
11.917 1.89618 1.89618
-11.9174 5.67877 1.8954
-10.6868 5.67211 1.89334
-8.8469 5.67416 1.89407
-5.67715 5.6771 1.89514
-1.89584 5.67858 1.89579
1.89581 5.67865 1.8958
5.67716 5.6771 1.8952
8.84683 5.67418 1.89401
10.6868 5.67211 1.89334
11.9174 5.67876 1.89545
-11.9204 8.85286 1.89414
-10.683 8.83914 1.8922
-8.84238 8.84236 1.89286
-5.67417 8.84692 1.89403
-1.89474 8.84914 1.89473
1.89479 8.84922 1.89476
5.67411 8.84682 1.89397
8.84233 8.84239 1.89289
10.683 8.83914 1.89224
11.9204 8.85289 1.89413
-11.9322 10.7155 1.89305
-10.6829 10.683 1.89145
-8.83916 10.683 1.89221
-5.67209 10.6868 1.89334
-1.89407 10.6892 1.89405
1.89408 10.6893 1.89405
5.6721 10.6868 1.89337
8.83913 10.683 1.8922
10.6829 10.6829 1.89142
11.9322 10.7155 1.89304
-12.0145 12.0145 1.89358
-10.7155 11.9322 1.89307
-8.85289 11.9204 1.89417
-5.67874 11.9174 1.89544
-1.89618 11.9169 1.89617
1.89619 11.917 1.89618
5.67873 11.9173 1.89543
8.85286 11.9205 1.89413
10.7155 11.9322 1.89303
12.0145 12.0145 1.89363
-12.0134 -12.0134 5.67134
-10.7124 -11.932 5.67011
-8.85026 -11.9205 5.67349
-5.67703 -11.9176 5.67698
-1.89545 -11.9174 5.67872
1.89548 -11.9174 5.67874
5.67706 -11.9176 5.677
8.85023 -11.9205 5.67351
10.7124 -11.932 5.67009
12.0135 -12.0134 5.67135
-11.932 -10.7124 5.67011
-10.6803 -10.6803 5.66479
-8.83672 -10.6805 5.66732
-5.67054 -10.6844 5.67048
-1.89339 -10.6868 5.67204
1.89338 -10.6868 5.67204
5.67049 -10.6843 5.67048
8.83674 -10.6805 5.66742
10.6802 -10.6803 5.6648
11.9319 -10.7124 5.67009
-11.9205 -8.85029 5.67356
-10.6805 -8.83673 5.6674
-8.84006 -8.84007 5.66959
-5.67262 -8.84462 5.6727
-1.89406 -8.84689 5.67412
1.89403 -8.84692 5.67412
5.67268 -8.8446 5.67268
8.84005 -8.84007 5.66955
10.6804 -8.83673 5.66742
11.9205 -8.85029 5.67354
-11.9176 -5.67704 5.67701
-10.6843 -5.67057 5.67053
-8.8446 -5.67263 5.67267
-5.67557 -5.67558 5.67548
-1.89517 -5.67713 5.67714
1.8952 -5.67715 5.67719
5.67562 -5.6756 5.67557
8.84468 -5.67264 5.67266
10.6844 -5.67056 5.67048
11.9177 -5.67703 5.67697
-11.9174 -1.89549 5.67872
-10.6868 -1.89337 5.67196
-8.8469 -1.89406 5.67409
-5.67714 -1.89514 5.67713
-1.89584 -1.89584 5.67858
1.89583 -1.89586 5.67853
5.67715 -1.89512 5.67713
8.84686 -1.89406 5.67404
10.6868 -1.89338 5.67199
11.9174 -1.89549 5.67873
-11.9174 1.89549 5.67874
-10.6868 1.89339 5.67202
-8.8469 1.89405 5.67406
-5.67716 1.89518 5.67713
-1.89584 1.89582 5.67861
1.89582 1.89577 5.67863
5.6771 1.89519 5.67712
8.84684 1.89405 5.67412
10.6868 1.89339 5.67208
11.9174 1.89545 5.67873
-11.9176 5.67701 5.67702
-10.6843 5.67046 5.67045
-8.84459 5.67263 5.67266
-5.67555 5.67564 5.67558
-1.89516 5.67714 5.67711
1.89522 5.67711 5.67713
5.67563 5.67567 5.6756
8.84468 5.67263 5.67266
10.6844 5.67049 5.67045
11.9177 5.67707 5.67699
-11.9206 8.85024 5.67351
-10.6805 8.83671 5.66737
-8.84006 8.84001 5.66958
-5.67262 8.84461 5.67265
-1.89406 8.8469 5.67409
1.89402 8.84686 5.6741
5.67268 8.84466 5.67264
8.84007 8.84001 5.66959
10.6804 8.83671 5.66738
11.9205 8.85031 5.67354
-11.932 10.7124 5.67014
-10.6803 10.6802 5.66479
-8.83672 10.6805 5.66736
-5.67055 10.6844 5.67047
-1.89338 10.6868 5.67205
1.8934 10.6868 5.67203
5.67054 10.6844 5.67048
8.83671 10.6804 5.66738
10.6802 10.6803 5.66478
11.932 10.7124 5.67014
-12.0134 12.0135 5.67135
-10.7124 11.932 5.67011
-8.85027 11.9205 5.67348
-5.67704 11.9177 5.67697
-1.89545 11.9174 5.67872
1.89548 11.9174 5.67872
5.67707 11.9177 5.67698
8.85027 11.9205 5.67351
10.7125 11.932 5.67011
12.0135 12.0135 5.67132
-12.0123 -12.0123 8.84378
-10.7066 -11.9335 8.83913
-8.84478 -11.9229 8.84476
-5.67357 -11.9206 8.85023
-1.89418 -11.9204 8.85289