# vtk DataFile Version 3.0 
Lennard-Jones particle simulation 
ASCII 
DATASET UNSTRUCTURED_GRID 
POINTS 1000 float 
-5.23424 -5.23424 -5.23425
-3.51579 -5.20542 -5.20542
-1.47787 -5.2081 -5.2081
0.830487 -5.21262 -5.21262
3.26288 -5.21498 -5.21498
5.73713 -5.21497 -5.21497
8.16953 -5.21262 -5.21262
10.4779 -5.2081 -5.2081
12.5158 -5.20542 -5.20542
14.2342 -5.23424 -5.23425
-5.20542 -3.51579 -5.20542
-3.50217 -3.50217 -5.1667
-1.47467 -3.50268 -5.16786
0.83059 -3.50403 -5.17219
3.26273 -3.50484 -5.17459
5.73725 -3.50484 -5.17459
8.16941 -3.50403 -5.17219
10.4747 -3.50268 -5.16786
12.5022 -3.50217 -5.1667
14.2054 -3.51579 -5.20542
-5.2081 -1.47788 -5.2081
-3.50268 -1.47466 -5.16786
-1.47612 -1.47612 -5.16849
0.829133 -1.47752 -5.17256
3.26219 -1.47818 -5.17491
5.73783 -1.47818 -5.17491
8.17087 -1.47752 -5.17256
10.4761 -1.47612 -5.16849
12.5027 -1.47466 -5.16787
14.2081 -1.47787 -5.20811
-5.21262 0.830486 -5.21262
-3.50403 0.830587 -5.1722
-1.47753 0.829141 -5.17257
0.827873 0.827873 -5.17646
3.26167 0.827286 -5.17873
5.73833 0.827285 -5.17873
8.17213 0.827874 -5.17648
10.4775 0.829135 -5.17256
12.504 0.830595 -5.17219
14.2126 0.830483 -5.21262
-5.21497 3.26289 -5.21498
-3.50485 3.26274 -5.17459
-1.47819 3.26219 -5.1749
0.827279 3.26167 -5.17875
3.26142 3.26143 -5.18094
5.73858 3.26142 -5.18095
8.17271 3.26167 -5.17872
10.4782 3.26219 -5.17492
12.5048 3.26274 -5.17459
14.215 3.26288 -5.21497
-5.21497 5.73711 -5.21497
-3.50484 5.73727 -5.17458
-1.47818 5.73782 -5.17491
0.827283 5.73833 -5.17871
3.26143 5.73857 -5.18093
5.73858 5.73857 -5.18093
8.17272 5.73833 -5.17873
10.4782 5.73783 -5.1749
12.5049 5.73727 -5.17459
14.215 5.73712 -5.21497
-5.21263 8.16953 -5.21263
-3.50403 8.16941 -5.17221
-1.47753 8.17089 -5.17257
0.827869 8.17212 -5.17648
3.26167 8.17272 -5.17874
5.73832 8.17271 -5.17874
8.17211 8.17212 -5.17646
10.4775 8.17087 -5.17258
12.504 8.1694 -5.1722
14.2126 8.16952 -5.21263
-5.2081 10.4779 -5.2081
-3.50268 10.4747 -5.16786
-1.47613 10.4761 -5.16849
0.829133 10.4775 -5.17257
3.26219 10.4782 -5.1749
5.73783 10.4782 -5.1749
8.17087 10.4775 -5.17258
10.4761 10.4761 -5.16849
12.5027 10.4747 -5.16786
14.2081 10.4779 -5.2081
-5.20542 12.5158 -5.20542
-3.50217 12.5022 -5.16671
-1.47467 12.5027 -5.16786
0.830589 12.504 -5.1722
3.26274 12.5048 -5.17459
5.73725 12.5048 -5.17459
8.16942 12.504 -5.1722
10.4747 12.5027 -5.16787
12.5022 12.5022 -5.16671
14.2054 12.5158 -5.20542
-5.23424 14.2342 -5.23425
-3.51579 14.2054 -5.20542
-1.47788 14.2081 -5.20811
0.830484 14.2126 -5.21262
3.26288 14.215 -5.21498
5.73713 14.215 -5.21498
8.16952 14.2126 -5.21263
10.4779 14.2081 -5.20811
12.5158 14.2054 -5.20542
14.2342 14.2342 -5.23425
-5.20542 -5.20542 -3.5158
-3.50217 -5.1667 -3.50217
-1.47467 -5.16786 -3.50268
0.830591 -5.17219 -3.50403
3.26273 -5.17459 -3.50484
5.73725 -5.17459 -3.50484
8.16942 -5.17219 -3.50403
10.4747 -5.16786 -3.50268
12.5022 -5.1667 -3.50218
14.2054 -5.20542 -3.51579
-5.1667 -3.50217 -3.50217
-3.48026 -3.48026 -3.48026
-1.46722 -3.47898 -3.47897
0.83266 -3.47968 -3.47968
3.26315 -3.48031 -3.4803
5.73686 -3.4803 -3.4803
8.16733 -3.47968 -3.47968
10.4672 -3.47898 -3.47897
12.4803 -3.48026 -3.48026
14.1667 -3.50217 -3.50218
-5.16787 -1.47466 -3.50268
-3.47898 -1.46721 -3.47897
-1.46766 -1.46765 -3.47725
0.831682 -1.46859 -3.47774
3.26272 -1.46908 -3.47833
5.73728 -1.46908 -3.47833
8.16832 -1.46859 -3.47774
10.4677 -1.46765 -3.47726
12.479 -1.46722 -3.47898
14.1679 -1.47467 -3.50269
-5.17218 0.83059 -3.50403
-3.47967 0.832669 -3.47968
-1.46859 0.831685 -3.47776
0.830627 0.830629 -3.47814
3.26228 0.830131 -3.47869
5.73772 0.830132 -3.47869
8.16938 0.830628 -3.47816
10.4686 0.831687 -3.47774
12.4797 0.832665 -3.47968
14.1722 0.830588 -3.50403
-5.17458 3.26273 -3.50485
-3.4803 3.26315 -3.48031
-1.46908 3.26272 -3.47833
0.83013 3.26227 -3.4787
3.26205 3.26205 -3.47918
5.73796 3.26205 -3.47919
8.16989 3.26226 -3.47868
10.4691 3.26273 -3.47834
12.4803 3.26315 -3.48031
14.1746 3.26274 -3.50484
-5.1746 5.73726 -3.50484
-3.48032 5.73685 -3.4803
-1.46909 5.73728 -3.47834
0.830126 5.73773 -3.47867
3.26204 5.73796 -3.47917
5.73796 5.73796 -3.47916
8.16988 5.73773 -3.47869
10.4691 5.73727 -3.47833
12.4803 5.73685 -3.4803
14.1746 5.73726 -3.50484
-5.17219 8.16941 -3.50404
-3.47967 8.16734 -3.47969
-1.4686 8.16831 -3.47775
0.830625 8.16937 -3.47816
3.26228 8.16988 -3.4787
5.73773 8.16989 -3.4787
8.16938 8.16937 -3.47815
10.4686 8.16832 -3.47776
12.4797 8.16734 -3.47969
14.1722 8.16942 -3.50404
-5.16787 10.4747 -3.50269
-3.47898 10.4672 -3.47898
-1.46766 10.4677 -3.47726
0.831684 10.4686 -3.47776
3.26272 10.4691 -3.47833
5.73727 10.4691 -3.47833
8.16831 10.4686 -3.47777
10.4677 10.4677 -3.47725
12.479 10.4672 -3.47898
14.1679 10.4747 -3.50269
-5.16671 12.5022 -3.50218
-3.48026 12.4803 -3.48027
-1.46722 12.479 -3.47898
0.832657 12.4797 -3.47969
3.26315 12.4803 -3.48031
5.73686 12.4803 -3.48031
8.16733 12.4797 -3.47968
10.4672 12.479 -3.47899
12.4803 12.4803 -3.48026
14.1667 12.5022 -3.50218
-5.20542 14.2054 -3.5158
-3.50218 14.1667 -3.50218
-1.47467 14.1679 -3.50269
0.830588 14.1722 -3.50403
3.26273 14.1746 -3.50485
5.73725 14.1746 -3.50485
8.16942 14.1722 -3.50404
10.4747 14.1679 -3.50269
12.5022 14.1667 -3.50218
14.2054 14.2054 -3.5158
-5.20811 -5.20811 -1.47788
-3.50269 -5.16787 -1.47467
-1.47613 -5.16849 -1.47612
0.829128 -5.17258 -1.47753
3.26218 -5.17491 -1.47818
5.73783 -5.17491 -1.47818
8.17088 -5.17257 -1.47753
10.4761 -5.1685 -1.47612
12.5027 -5.16787 -1.47467
14.2081 -5.20811 -1.47788
-5.16787 -3.50269 -1.47466
-3.47899 -3.47899 -1.46722
-1.46766 -3.47725 -1.46765
0.83168 -3.47776 -1.4686
3.26272 -3.47834 -1.46908
5.73728 -3.47834 -1.46908
8.16832 -3.47775 -1.4686
10.4677 -3.47726 -1.46765
12.479 -3.47898 -1.46722
14.1679 -3.50269 -1.47467
-5.16848 -1.47613 -1.47612
-3.47725 -1.46766 -1.46765
-1.46785 -1.46785 -1.46786
0.830801 -1.46869 -1.46867
3.26233 -1.46914 -1.46914
5.73767 -1.46914 -1.46914
8.1692 -1.46868 -1.46867
10.4678 -1.46786 -1.46787
12.4773 -1.46766 -1.46766
14.1685 -1.47613 -1.47613
-5.17258 0.82913 -1.47753
-3.47777 0.83168 -1.46859
-1.46869 0.830801 -1.46868
0.829795 0.829802 -1.46946
3.26188 0.829308 -1.46991
5.73811 0.829304 -1.4699
8.1702 0.829811 -1.46948
10.4687 0.830786 -1.46866
12.4777 0.83168 -1.4686
14.1726 0.829129 -1.47752
-5.17492 3.26218 -1.47819
-3.47834 3.26272 -1.46909
-1.46914 3.26231 -1.46914
0.8293 3.26189 -1.46992
3.26166 3.26167 -1.47033
5.73833 3.26166 -1.47034
8.17068 3.26189 -1.4699
10.4691 3.2623 -1.46915
12.4783 3.26272 -1.46909
14.1749 3.26218 -1.47819
-5.17492 5.73782 -1.47818
-3.47834 5.73727 -1.46908
-1.46914 5.73767 -1.46914
0.82931 5.7381 -1.46989
3.26167 5.73833 -1.47031
5.73834 5.73833 -1.4703
8.1707 5.73812 -1.46991
10.4691 5.73766 -1.46914
12.4783 5.73728 -1.46908
14.1749 5.73782 -1.47819
-5.17255 8.17086 -1.47754
-3.47774 8.16832 -1.4686
-1.46868 8.16919 -1.46868
0.8298 8.17019 -1.46947
3.26188 8.17069 -1.46992
5.73811 8.17069 -1.46992
8.17019 8.1702 -1.46946
10.4686 8.16919 -1.46868
12.4777 8.16831 -1.4686
14.1725 8.17086 -1.47754
-5.16847 10.4761 -1.47613
-3.47724 10.4677 -1.46765
-1.46784 10.4678 -1.46786
0.830816 10.4687 -1.46869
3.26233 10.4691 -1.46914
5.73767 10.4691 -1.46913
8.1692 10.4687 -1.46869
10.4678 10.4678 -1.46785
12.4773 10.4677 -1.46766
14.1685 10.4761 -1.47613
-5.16786 12.5027 -1.47467
-3.47897 12.479 -1.46723
-1.46765 12.4772 -1.46766
0.831691 12.4777 -1.4686
3.26272 12.4783 -1.46909
5.73727 12.4783 -1.46909
8.16832 12.4777 -1.4686
10.4677 12.4772 -1.46767
12.479 12.479 -1.46722
14.1679 12.5027 -1.47468
-5.20809 14.2081 -1.47789
-3.50267 14.1679 -1.47467
-1.47612 14.1685 -1.47613
0.829139 14.1725 -1.47753
3.26218 14.1749 -1.47819
5.73783 14.1749 -1.47819
8.17087 14.1726 -1.47753
10.4761 14.1685 -1.47613
12.5027 14.1679 -1.47467
14.2081 14.2081 -1.47789
-5.2126 -5.2126 0.83047
-3.50401 -5.17218 0.830586
-1.47751 -5.17256 0.829133
0.82788 -5.17646 0.827865
3.26168 -5.17873 0.827282
5.73833 -5.17873 0.827281
8.17212 -5.17646 0.827861
10.4775 -5.17255 0.829137
12.504 -5.17218 0.830582
14.2126 -5.21261 0.83047
-5.17218 -3.50401 0.830583
-3.47966 -3.47966 0.832661
-1.46858 -3.47775 0.831666
0.830632 -3.47814 0.830613
3.26228 -3.47869 0.830131
5.73772 -3.47869 0.830129
8.16935 -3.47815 0.830616
10.4686 -3.47774 0.831685
12.4796 -3.47967 0.832659
14.1722 -3.50402 0.830591
-5.17256 -1.47751 0.829136
-3.47775 -1.46858 0.831683
-1.46868 -1.46867 0.830791
0.829802 -1.46945 0.829816
3.26189 -1.46991 0.829308
5.73811 -1.4699 0.829306
8.1702 -1.46946 0.829821
10.4687 -1.46867 0.830782
12.4778 -1.46859 0.831677
14.1726 -1.47752 0.829125
-5.17645 0.827881 0.827864
-3.47814 0.830631 0.830626
-1.46945 0.829809 0.829803
0.828827 0.828829 0.828817
3.26147 0.82832 0.828331
5.73856 0.828327 0.828333
8.1712 0.828818 0.828799
10.4695 0.82982 0.829823
12.4782 0.830626 0.830616
14.1765 0.827878 0.827869
-5.17873 3.26168 0.827274
-3.47868 3.26228 0.83012
-1.46991 3.26189 0.829301
0.828322 3.26146 0.828318
3.26123 3.26123 0.827846
5.73876 3.26124 0.827835
8.17167 3.26147 0.828337
10.4699 3.26189 0.829293
12.4787 3.26228 0.830124
14.1787 3.26169 0.827276
-5.17873 5.73834 0.827286
-3.47869 5.73771 0.830132
-1.46991 5.73811 0.829307
0.828322 5.73855 0.828341
3.26122 5.73877 0.827865
5.73876 5.73876 0.82787
8.17166 5.73854 0.828317
10.4699 5.73811 0.829309
12.4787 5.73771 0.83013
14.1787 5.73832 0.82728
-5.17646 8.17212 0.827865
-3.47814 8.16935 0.830606
-1.46945 8.1702 0.829809
0.828833 8.1712 0.828811
3.26146 8.17166 0.828308
5.73857 8.17167 0.82831
8.17121 8.17119 0.828825
10.4695 8.17021 0.829803
12.4782 8.16937 0.830608
14.1765 8.17212 0.827861
-5.17257 10.4775 0.829131
-3.47776 10.4686 0.831679
-1.46868 10.4687 0.830776
0.829797 10.4695 0.829792
3.26188 10.4699 0.829306
5.73811 10.4699 0.829315
8.1702 10.4695 0.829781
10.4687 10.4687 0.830795
12.4777 10.4686 0.831668
14.1726 10.4775 0.829128
-5.17218 12.504 0.830581
-3.47967 12.4797 0.832657
-1.46859 12.4777 0.83168
0.83063 12.4782 0.83061
3.26228 12.4787 0.83013
5.73772 12.4787 0.830127
8.16936 12.4782 0.830619
[...]
POINT_DATA 1000
SCALARS mass float 
LOOKUP_TABLE default 
1
1
1
1
1
1
1
1
1
1
1
1
1
1
1
1
1
1
1
1
1
1
1
1
1
1
1
1
1
1
1
1
1
1
1
1
1
1
1
1
1
1
1
1
1
1
1
1
1
1
1
1
1
1
1
1
1
1
1
1
1
1
1
1
1
1
1
1
1
1
1
1
1
1
1
1
1
1
1
1
1
1
1
1
1
1
1
1
1
1
1
1
1
1
1
1
1
1
1
1
1
1
1
1
1
1
1
1
1
1
1
1
1
1
1
1
1
1
1
1
1
1
1
1
1
1
1
1
1
1
1
1
1
1
1
1
1
1
1
1
1
1
1
1
1
1
1
1
1
1
1
1
1
1
1
1
1
1
1
1
1
1
1
1
1
1
1
1
1
1
1
1
1
1
1
1
1
1
1
1
1
1
1
1
1
1
1
1
1
1
1
1
1
1
1
1
1
1
1
1
1
1
1
1
1
1
1
1
1
1
1
1
1
1
1
1
1
1
1
1
1
1
1
1
1
1
1
1
1
1
1
1
1
1
1
1
1
1
1
1
1
1
1
1
1
1
1
1
1
1
1
1
1
1
1
1
1
1
1
1
1
1
1
1
1
1
1
1
1
1
1
1
1
1
1
1
1
1
1
1
1
1
1
1
1
1
1
1
1
1
1
1
1
1
1
1
1
1
1
1
1
1
1
1
1
1
1
1
1
1
1
1
1
1
1
1
1
1
1
1
1
1
1
1
1
1
1
1
1
1
1
1
1
1
1
1
1
1
1
1
1
1
1
1
1
1
1
1
1
1
1
1
1
1
1
1
1
1
1
1
1
1
1
1
1
1
1
1
1
1
1
1
1
1
1
1
1
1
1
1
1
1
1
1
1
1
1
1
1
1
1
1
1
1
1
1
1
1
1
1
1
1
1
1
1
1
1
1
1
1
1
1
1
1
1
1
1
1
1
1
1
1
1
1
1
1
1
1
1
1
1
1
1
1
1
1
1
1
1
1
1
1
1
1
1
1
1
1
1
1
1
1
1
1
1
1
1
1
1
1
1
1
1
1
1
1
1
1
1
1
1
1
1
1
1
1
1
1
1
1
1
1
1
1
1
1
1
1
1
1
1
1
1
1
1
1
1
1
1
1
1
1
1
1
1
1
1
1
1
1
1
1
1
1
1
1
1
1
1
1
1
1
1
1
1
1
1
1
1
1
1
1
1
1
1
1
1
1
1
1
1
1
1
1
1
1
1
1
1
1
1
1
1
1
1
1
1
1
1
1
1
1
1
1
1
1
1
1
1
1
1
1
1
1
1
1
1
1
1
1
1
1
1
1
1
1
1
1
1
1
1
1
1
1
1
1
1
1
1
1
1
1
1
1
1
1
1
1
1
1
1
1
1
1
1
1
1
1
1
1
1
1
1
1
1
1
1
1
1
1
1
1
1
1
1
1
1
1
1
1
1
1
1
1
1
1
1
1
1
1
1
1
1
1
1
1
1
1
1
1
1
1
1
1
1
1
1
1
1
1
1
1
1
1
1
1
1
1
1
1
1
1
1
1
1
1
1
1
1
1
1
1
1
1
1
1
1
1
1
1
1
1
1
1
1
1
1
1
1
1
1
1
1
1
1
1
1
1
1
1
1
1
1
1
1
1
1
1
1
1
1
1
1
1
1
1
1
1
1
1
1
1
1
1
1
1
1
1
1
1
1
1
1
1
1
1
1
1
1
1
1
1
1
1
1
1
1
1
1
1
1
1
1
1
1
1
1
1
1
1
1
1
1
1
1
1
1
1
1
1
1
1
1
1
1
1
1
1
1
1
1
1
1
1
1
1
1
1
1
1
1
1
1
1
1
1
1
1
1
1
1
1
1
1
1
1
1
1
1
1
1
1
1
1
1
1
1
1
1
1
1
1
1
1
1
1
1
1
1
1
1
1
1
1
1
1
1
1
1
1
1
1
1
1
1
1
1
1
1
1
1
1
1
1
1
1
1
1
1
1
1
1
1
1
1
1
1
1
1
1
1
1
1
1
1
1
1
1
1
1
1
1
1
1
1
1
1
1
1
1
1
1
1
1
1
1
1
1
1
1
1
1
1
1
1
1
1
1
1
1
1
1
1
1
1
1
1
1
1
1
1
1
1
1
1
1
1
1
1
1
1
1
1
1
1
1
1
1
1
1
1
1
1
1
1
1
1
1
1
1
1
1
1
1
1
1
1
1
1
1
1
1
1
1
1
1
1
1
1
1
1
1
1
1
1
1
1
1
1
1
VECTORS velocity float 
-12.2833 -12.2833 -12.2833
-11.1861 -12.1894 -12.1894
-8.74331 -12.2094 -12.2094
-5.46227 -12.2311 -12.2311
-1.86149 -12.2412 -12.2412
1.86151 -12.2412 -12.2412
5.46232 -12.2311 -12.2311
8.74331 -12.2094 -12.2094
11.1861 -12.1894 -12.1894
12.2833 -12.2833 -12.2833
-12.1894 -11.1861 -12.1894
-11.1391 -11.1391 -12.0702
-8.73631 -11.135 -12.089
-5.46313 -11.136 -12.112
-1.8622 -11.1374 -12.123
1.86215 -11.1374 -12.123
5.46313 -11.136 -12.112
8.7363 -11.135 -12.089
11.139 -11.139 -12.0702
12.1894 -11.1861 -12.1894
-12.2094 -8.74332 -12.2094
-11.135 -8.7363 -12.089
-8.73627 -8.73626 -12.1062
-5.46541 -8.73733 -12.1282
-1.86321 -8.73797 -12.1389
1.86325 -8.73797 -12.1389
5.46543 -8.73733 -12.1282
8.73625 -8.73626 -12.1062
11.135 -8.73629 -12.089
12.2094 -8.7433 -12.2094
-12.2311 -5.46227 -12.2311
-11.1361 -5.46314 -12.112
-8.73734 -5.46539 -12.1283
-5.46761 -5.46761 -12.1496
-1.86428 -5.46865 -12.16
1.86428 -5.46865 -12.16
5.46762 -5.46761 -12.1497
8.73733 -5.46541 -12.1282
11.1361 -5.46311 -12.112
12.2311 -5.46229 -12.2311
-12.2412 -1.86145 -12.2412
-11.1374 -1.86219 -12.123
-8.73799 -1.86321 -12.1389
-5.46866 -1.86428 -12.16
-1.86479 -1.86478 -12.1702
1.86479 -1.86478 -12.1702
5.46861 -1.86427 -12.16
8.73794 -1.86321 -12.139
11.1373 -1.86219 -12.123
12.2412 -1.86147 -12.2412
-12.2412 1.86145 -12.2412
-11.1374 1.8622 -12.1229
-8.73798 1.86324 -12.1389
-5.46865 1.86427 -12.1599
-1.86475 1.86476 -12.1701
1.86478 1.86477 -12.1701
5.46866 1.86427 -12.16
8.738 1.86324 -12.1389
11.1374 1.8622 -12.123
12.2412 1.86148 -12.2412
-12.2311 5.46234 -12.2311
-11.1361 5.46314 -12.1121
-8.73736 5.46548 -12.1283
-5.46762 5.46758 -12.1496
-1.86429 5.46864 -12.16
1.86424 5.46863 -12.16
5.46758 5.46759 -12.1496
8.73733 5.4654 -12.1283
11.1361 5.46311 -12.1121
12.2311 5.4623 -12.2311
-12.2094 8.7433 -12.2094
-11.135 8.73628 -12.089
-8.73627 8.73627 -12.1062
-5.46541 8.73734 -12.1283
-1.8632 8.73799 -12.1389
1.86325 8.73799 -12.1389
5.46543 8.73735 -12.1283
8.73626 8.73626 -12.1061
11.135 8.73633 -12.089
12.2094 8.74332 -12.2094
-12.1894 11.1861 -12.1894
-11.1391 11.139 -12.0703
-8.73631 11.135 -12.089
-5.46313 11.1361 -12.1121
-1.86218 11.1374 -12.123
1.86216 11.1374 -12.123
5.46315 11.1361 -12.112
8.73629 11.135 -12.089
11.139 11.1391 -12.0703
12.1894 11.1861 -12.1894
-12.2833 12.2833 -12.2833
-11.1861 12.1894 -12.1894
-8.74332 12.2094 -12.2094
-5.46229 12.2311 -12.2311
-1.86148 12.2412 -12.2412
1.8615 12.2412 -12.2412
5.4623 12.2311 -12.2311
8.74332 12.2094 -12.2094
11.1861 12.1894 -12.1894
12.2833 12.2833 -12.2833
-12.1894 -12.1894 -11.1861
-11.1391 -12.0702 -11.1391
-8.73631 -12.089 -11.135
-5.46312 -12.112 -11.1361
-1.8622 -12.123 -11.1374
1.86214 -12.123 -11.1374
5.46316 -12.112 -11.1361
8.73629 -12.089 -11.135
11.139 -12.0702 -11.1391
12.1894 -12.1894 -11.1861
-12.0702 -11.1391 -11.1391
-11.0638 -11.0638 -11.0638
-8.71743 -11.054 -11.054
-5.45892 -11.0532 -11.0533
-1.86151 -11.0542 -11.0542
1.86153 -11.0542 -11.0542
5.45887 -11.0532 -11.0533
8.71748 -11.054 -11.054
11.0638 -11.0638 -11.0638
12.0702 -11.1391 -11.1391
-12.089 -8.7363 -11.135
-11.054 -8.71743 -11.054
-8.71411 -8.71409 -11.0431
-5.45975 -8.71352 -11.0419
-1.86219 -8.71358 -11.0428
1.86217 -8.71357 -11.0428
5.45976 -8.71353 -11.0419
8.71411 -8.71409 -11.0431
11.054 -8.71744 -11.054
12.089 -8.73631 -11.135
-12.112 -5.46313 -11.1361
-11.0532 -5.45889 -11.0532
-8.71354 -5.45974 -11.0419
-5.46125 -5.46125 -11.0404
-1.86299 -5.46198 -11.0412
1.86301 -5.46198 -11.0412
5.46127 -5.46125 -11.0405
8.71354 -5.45974 -11.0419
11.0532 -5.4589 -11.0532
12.1121 -5.46313 -11.136
-12.123 -1.86219 -11.1374
-11.0542 -1.86151 -11.0542
-8.71357 -1.86218 -11.0428
-5.46198 -1.86304 -11.0412
-1.86345 -1.86347 -11.0418
1.86348 -1.86344 -11.0418
5.46204 -1.86306 -11.0412
8.71358 -1.86215 -11.0428
11.0542 -1.8615 -11.0542
12.123 -1.86219 -11.1374
-12.123 1.86219 -11.1374
-11.0542 1.8615 -11.0542
-8.71361 1.86216 -11.0428
-5.46199 1.86304 -11.0411
-1.86349 1.86349 -11.0418
1.86348 1.86347 -11.0418
5.46202 1.86304 -11.0412
8.71359 1.86214 -11.0428
11.0542 1.86149 -11.0542
12.123 1.86218 -11.1374
-12.112 5.46315 -11.1361
-11.0532 5.45892 -11.0533
-8.71354 5.45973 -11.0419
-5.46125 5.46124 -11.0405
-1.863 5.46202 -11.0412
1.86302 5.46203 -11.0412
5.46128 5.46125 -11.0404
8.71356 5.45976 -11.0419
11.0533 5.45891 -11.0533
12.1121 5.46316 -11.1361
-12.089 8.73629 -11.135
-11.054 8.71746 -11.054
-8.7141 8.71414 -11.0431
-5.45974 8.71357 -11.0419
-1.86219 8.71359 -11.0428
1.86215 8.7136 -11.0428
5.45974 8.71356 -11.042
8.71413 8.71414 -11.0431
11.054 8.71746 -11.054
12.089 8.73629 -11.135
-12.0702 11.139 -11.1391
-11.0638 11.0638 -11.0638
-8.71743 11.054 -11.054
-5.45893 11.0533 -11.0533
-1.86151 11.0542 -11.0542
1.86153 11.0542 -11.0542
5.45887 11.0533 -11.0533
8.71748 11.054 -11.054
11.0638 11.0638 -11.0638
12.0702 11.139 -11.1391
-12.1894 12.1894 -11.1861
-11.1391 12.0702 -11.1391
-8.73632 12.089 -11.135
-5.46313 12.1121 -11.1361
-1.8622 12.123 -11.1374
1.86214 12.123 -11.1374
5.46316 12.1121 -11.1361
8.73629 12.089 -11.135
11.139 12.0702 -11.1391
12.1894 12.1894 -11.1861
-12.2094 -12.2094 -8.74333
-11.135 -12.089 -8.73631
-8.73629 -12.1061 -8.73625
-5.46543 -12.1283 -8.73735
-1.86322 -12.1389 -8.73798
1.86326 -12.1389 -8.73798
5.46544 -12.1283 -8.73735
8.73628 -12.1062 -8.73625
11.135 -12.089 -8.73632
12.2094 -12.2094 -8.74333
-12.089 -11.135 -8.73631
-11.054 -11.054 -8.71743
-8.71411 -11.0431 -8.7141
-5.45976 -11.0419 -8.71355
-1.86219 -11.0428 -8.71357
1.86217 -11.0428 -8.71357
5.45976 -11.0419 -8.71354
8.71414 -11.0431 -8.71409
11.054 -11.054 -8.71744
12.089 -11.135 -8.73632
-12.1061 -8.73628 -8.73626
-11.0431 -8.71411 -8.7141
-8.71027 -8.71026 -8.71029
-5.46041 -8.70951 -8.70946
-1.86278 -8.70949 -8.70949
1.86277 -8.70949 -8.70949
5.4604 -8.70949 -8.70945
8.71026 -8.71029 -8.71031
11.0431 -8.7141 -8.71411
12.1062 -8.73628 -8.73627
-12.1283 -5.46542 -8.73733
-11.042 -5.45976 -8.71352
-8.70952 -5.46041 -8.70948
-5.46182 -5.4618 -8.70865
-1.86362 -5.46254 -8.70862
1.86359 -5.46255 -8.70861
5.46182 -5.46177 -8.7087
8.70944 -5.46045 -8.70945
11.0419 -5.45976 -8.71353
12.1283 -5.46542 -8.73733
-12.139 -1.86323 -8.738
-11.0428 -1.86217 -8.71358
-8.70949 -1.86283 -8.70949
-5.46256 -1.86362 -8.70866
-1.86405 -1.86403 -8.70855
1.86402 -1.86405 -8.70859
5.4625 -1.86361 -8.70861
8.70944 -1.86284 -8.7095
11.0428 -1.86218 -8.71359
12.1389 -1.86322 -8.738
-12.139 1.86323 -8.73798
-11.0428 1.86214 -8.71356
-8.70949 1.86277 -8.7095
-5.46254 1.86358 -8.70858
-1.86403 1.86404 -8.7085
1.86404 1.86402 -8.70848
5.46257 1.86364 -8.70863
8.70948 1.86273 -8.70949
11.0428 1.86217 -8.71356
12.139 1.86321 -8.73798
-12.1282 5.46539 -8.73736
-11.0419 5.45976 -8.71355
-8.70948 5.46038 -8.70948
-5.46181 5.46179 -8.70867
-1.86364 5.46254 -8.70864
1.8636 5.46252 -8.70865
5.46179 5.46182 -8.70863
8.70938 5.46038 -8.7095
11.0419 5.45974 -8.71355
12.1282 5.46539 -8.73737
-12.1061 8.73626 -8.73629
-11.0431 8.71415 -8.71409
-8.71024 8.71024 -8.71029
-5.46037 8.70944 -8.7095
-1.86277 8.70946 -8.70949
1.86278 8.70946 -8.70946
5.46041 8.70947 -8.70952
8.71025 8.71023 -8.71025
11.0431 8.71413 -8.71411
12.1062 8.73626 -8.73628
-12.089 11.135 -8.73633
-11.054 11.054 -8.71745
-8.71408 11.0431 -8.7141
-5.45972 11.0419 -8.71355
-1.86218 11.0428 -8.71359
1.86214 11.0428 -8.71359
5.45976 11.0419 -8.71354
8.71414 11.0431 -8.71413
11.054 11.054 -8.71744
12.089 11.135 -8.73633
-12.2094 12.2094 -8.74334
-11.135 12.089 -8.73633
-8.73625 12.1061 -8.73629
-5.46539 12.1282 -8.73736
-1.86321 12.1389 -8.73799
1.86325 12.1389 -8.73799
5.46542 12.1283 -8.73735
8.73627 12.1061 -8.73629
11.135 12.089 -8.73633
12.2094 12.2094 -8.74335
-12.2311 -12.2311 -5.46232
-11.136 -12.112 -5.46314
-8.7373 -12.1283 -5.46541
-5.46759 -12.1496 -5.46763
-1.86425 -12.16 -5.46866
1.86427 -12.16 -5.46866
5.46759 -12.1496 -5.46764
8.73731 -12.1282 -5.4654
11.136 -12.112 -5.46314
12.2311 -12.2311 -5.46232
-12.112 -11.136 -5.46315
-11.0532 -11.0532 -5.45891
-8.7135 -11.0419 -5.45981
-5.46124 -11.0404 -5.46129
-1.863 -11.0412 -5.46198
1.863 -11.0412 -5.46198
5.4612 -11.0405 -5.46128
8.71348 -11.0419 -5.45974
11.0531 -11.0532 -5.45892
12.112 -11.136 -5.46312
-12.1283 -8.7373 -5.46541
-11.0419 -8.7135 -5.45975
-8.70949 -8.70947 -5.46044
-5.4618 -8.70861 -5.46176
-1.86362 -8.70862 -5.46253
1.86361 -8.7086 -5.46254
5.46181 -8.70863 -5.46175
8.70948 -8.70945 -5.46045
11.0419 -8.71352 -5.45976
12.1283 -8.73731 -5.46544
-12.1496 -5.46759 -5.46764
-11.0404 -5.46124 -5.46126
-8.70861 -5.46178 -5.4618
-5.46315 -5.46315 -5.46318
-1.86439 -5.46394 -5.4639
1.86447 -5.46392 -5.4639
5.46324 -5.46318 -5.46323
8.70868 -5.46175 -5.46174
11.0405 -5.46126 -5.46128
12.1496 -5.4676 -5.46762
-12.16 -1.86426 -5.46867
-11.0412 -1.86301 -5.46201
-8.70862 -1.86362 -5.46255
-5.46393 -1.86442 -5.46394
-1.86488 -1.86489 -5.46463
1.86486 -1.86487 -5.46466
5.46391 -1.86441 -5.46389
8.70863 -1.86361 -5.46258
11.0412 -1.86301 -5.46199
12.16 -1.86423 -5.46867
-12.16 1.86429 -5.46864
-11.0412 1.86298 -5.46198
-8.70863 1.86362 -5.46254
-5.46393 1.86445 -5.46388
-1.86489 1.86487 -5.46458
1.86485 1.86484 -5.46457
5.4639 1.86444 -5.46394
8.70862 1.86361 -5.46253
11.0412 1.86298 -5.46198
12.16 1.86425 -5.46866
-12.1496 5.4676 -5.46763
-11.0404 5.4612 -5.46132
-8.70863 5.46182 -5.46178
-5.46314 5.46323 -5.46319
-1.86443 5.46388 -5.46397
1.86451 5.46391 -5.46396
5.46325 5.4632 -5.46316
8.7087 5.46183 -5.46179
11.0405 5.46126 -5.4613
12.1497 5.4676 -5.46764
-12.1283 8.73731 -5.46541
-11.0419 8.71349 -5.45976
-8.7095 8.70946 -5.46048
-5.46181 8.70868 -5.46183
-1.86364 8.70864 -5.46254
1.86362 8.70865 -5.46252
5.46181 8.70866 -5.46186
8.70942 8.70947 -5.46042
11.0419 8.71345 -5.45978
12.1283 8.73732 -5.46542
-12.112 11.136 -5.46315
-11.0532 11.0532 -5.45892
-8.71352 11.0419 -5.45975
-5.46125 11.0405 -5.4613
-1.86301 11.0412 -5.46198
1.86299 11.0412 -5.46199
5.46121 11.0405 -5.46127
8.71349 11.0419 -5.45981
11.0532 11.0532 -5.45892
12.112 11.136 -5.46314
-12.2311 12.2311 -5.46233
-11.136 12.112 -5.46315
-8.73731 12.1283 -5.46544
-5.4676 12.1497 -5.46762
-1.86425 12.16 -5.46868
1.86427 12.16 -5.46867
5.46759 12.1496 -5.46763
8.73732 12.1283 -5.46542
11.136 12.112 -5.46315
12.2311 12.2311 -5.46232
-12.2412 -12.2412 -1.86153
-11.1374 -12.123 -1.86219
-8.73798 -12.1389 -1.86324
-5.46865 -12.16 -1.8643
-1.86477 -12.1702 -1.86479
1.8648 -12.1702 -1.86477
5.46861 -12.16 -1.86433
8.73797 -12.1389 -1.86324
11.1374 -12.1229 -1.86222
12.2412 -12.2412 -1.86152
-12.123 -11.1374 -1.86223
-11.0542 -11.0542 -1.86152
-8.71357 -11.0428 -1.86213
-5.46198 -11.0412 -1.86303
-1.86346 -11.0418 -1.86346
1.86349 -11.0418 -1.86346
5.46202 -11.0412 -1.86306
8.7136 -11.0428 -1.86217
11.0542 -11.0541 -1.86151
12.123 -11.1374 -1.86222
-12.1389 -8.73799 -1.86323
-11.0428 -8.71358 -1.86217
-8.70946 -8.70948 -1.86284
-5.46252 -8.70862 -1.86357
-1.86403 -8.70854 -1.86407
1.86403 -8.70857 -1.86406
5.46253 -8.7086 -1.86357
8.70941 -8.70948 -1.86286
11.0427 -8.71357 -1.86216
12.1389 -8.73799 -1.86321
-12.16 -5.46867 -1.86429
-11.0412 -5.46199 -1.863
-8.70862 -5.46254 -1.86361
-5.46393 -5.4639 -1.86446
-1.86489 -5.46462 -1.86487
1.86486 -5.46464 -1.86487
5.4639 -5.46391 -1.86449
8.70865 -5.46255 -1.86357
11.0412 -5.46197 -1.86301
12.16 -5.46865 -1.8643
-12.1702 -1.86474 -1.86476
-11.0418 -1.86345 -1.86349
-8.70854 -1.86405 -1.86405
-5.4646 -1.86487 -1.8649
-1.86529 -1.86529 -1.86533
1.86531 -1.86532 -1.86535
5.46459 -1.86487 -1.86484
8.7085 -1.86405 -1.86408
11.0417 -1.86345 -1.86348
12.1701 -1.86478 -1.86477
-12.1702 1.86475 -1.86476
-11.0418 1.86348 -1.86345
-8.70854 1.86403 -1.86404
-5.4646 1.86487 -1.86488
-1.86528 1.8653 -1.86524
1.86529 1.86526 -1.86523
5.4646 1.86487 -1.86488
8.70849 1.86402 -1.86405
11.0417 1.86349 -1.86346
12.1701 1.86477 -1.86477
-12.16 5.46865 -1.8643
-11.0412 5.46202 -1.86307
-8.70861 5.46248 -1.86361
-5.46394 5.46391 -1.86445
-1.86488 5.46455 -1.86493
1.86485 5.46455 -1.86492
5.46388 5.46393 -1.86444
8.70865 5.46248 -1.86364
11.0412 5.462 -1.8631
12.16 5.46862 -1.86433
-12.1389 8.73791 -1.86328
-11.0428 8.71356 -1.86218
-8.70946 8.70942 -1.86286
-5.46252 8.70865 -1.86362
-1.86402 8.70851 -1.86404
1.86403 8.7085 -1.86403
5.46253 8.70866 -1.8637
8.70942 8.7094 -1.86284
11.0428 8.71359 -1.86217
12.1389 8.73792 -1.86329
-12.123 11.1374 -1.86221
-11.0542 11.0542 -1.86156
-8.71357 11.0428 -1.86219
-5.46198 11.0412 -1.86307
-1.86345 11.0417 -1.86351
1.86349 11.0417 -1.86349
5.46201 11.0412 -1.86306
8.71358 11.0427 -1.86219
11.0542 11.0542 -1.86156
12.123 11.1374 -1.86221
-12.2412 12.2412 -1.86154
-11.1374 12.123 -1.86222
-8.73797 12.1389 -1.86332
-5.46864 12.16 -1.86432
-1.86478 12.1701 -1.86479
1.86479 12.1701 -1.86479
5.46863 12.16 -1.86432
8.73796 12.1389 -1.86328
11.1374 12.123 -1.86221
12.2412 12.2412 -1.86155
-12.2412 -12.2412 1.86146
-11.1374 -12.123 1.86213
-8.73797 -12.1389 1.86322
-5.46865 -12.16 1.86426
-1.86477 -12.1702 1.86477
1.86478 -12.1701 1.86478
5.46861 -12.16 1.86424
8.73795 -12.1389 1.86323
11.1374 -12.123 1.86216
12.2412 -12.2412 1.86147
-12.123 -11.1374 1.86218
-11.0542 -11.0542 1.86149
-8.71359 -11.0428 1.86216
-5.46198 -11.0412 1.86295
-1.86347 -11.0418 1.86344
1.86349 -11.0418 1.86344
5.46203 -11.0412 1.86298
8.71359 -11.0427 1.86221
11.0542 -11.0542 1.86151
12.123 -11.1374 1.86214
-12.1389 -8.73798 1.86322
-11.0428 -8.71358 1.86219
-8.70947 -8.70947 1.86271
-5.46254 -8.70861 1.86364
-1.86403 -8.70854 1.86402
1.86406 -8.70847 1.86402
5.46251 -8.70862 1.86366
8.70944 -8.70945 1.86271
11.0428 -8.71359 1.86217
12.1389 -8.73798 1.86319
-12.16 -5.46865 1.8642
-11.0412 -5.46198 1.86296
-8.7086 -5.46251 1.86362
-5.46393 -5.46391 1.86434
-1.86489 -5.4646 1.8649
1.86487 -5.46456 1.86489
5.46387 -5.46395 1.86437
8.70864 -5.4625 1.86363
11.0412 -5.46199 1.86295
12.16 -5.46865 1.86424
-12.1702 -1.86474 1.86475
-11.0418 -1.86346 1.86343
-8.70854 -1.86403 1.864
-5.4646 -1.8649 1.86485
-1.86529 -1.86531 1.86528
1.8653 -1.8652 1.86522
5.46459 -1.86491 1.86488
8.70853 -1.86404 1.86397
11.0418 -1.86347 1.86342
12.1702 -1.86475 1.86475
-12.1702 1.86478 1.86478
-11.0418 1.86348 1.86345
-8.70853 1.86406 1.864
-5.46458 1.86485 1.8649
-1.86529 1.8653 1.86534
1.86532 1.86535 1.86537
5.46462 1.86481 1.86485
8.70856 1.8641 1.86405
11.0418 1.86347 1.86345
12.1702 1.86479 1.86478
-12.16 5.46866 1.8642
-11.0412 5.46202 1.86295
-8.70861 5.46253 1.86364
-5.46393 5.46388 1.86441
-1.86488 5.46458 1.86484
1.86486 5.46466 1.86483
5.46389 5.46384 1.86448
8.70862 5.46256 1.86359
11.0412 5.46201 1.86294
12.16 5.46866 1.86424
-12.1389 8.73794 1.86315
-11.0428 8.71357 1.86215
-8.70946 8.70944 1.86271
-5.46254 8.70864 1.8636
-1.86403 8.70849 1.86402
1.86405 8.70862 1.86403
5.4625 8.70855 1.86354
8.70941 8.70951 1.86276
11.0428 8.71356 1.86219
12.1389 8.73794 1.86317
-12.123 11.1374 1.86212
-11.0542 11.0542 1.86147
-8.71359 11.0428 1.86216
-5.46198 11.0412 1.86293
-1.86347 11.0418 1.86344
1.86348 11.0419 1.86344
5.462 11.0411 1.86298
8.71356 11.0428 1.86211
11.0542 11.0542 1.86143
12.123 11.1374 1.86211
-12.2412 12.2412 1.86144
-11.1374 12.123 1.86214
-8.73798 12.1389 1.86318
-5.46863 12.16 1.86425
-1.86479 12.1701 1.86477
1.86478 12.1702 1.86477
5.46862 12.1599 1.86423
8.73794 12.139 1.86315
11.1374 12.123 1.86211
12.2412 12.2412 1.86146
-12.2311 -12.2311 5.46224
-11.136 -12.112 5.46309
-8.73731 -12.1283 5.46535
-5.46759 -12.1496 5.46754
-1.86425 -12.16 5.46863
1.86428 -12.16 5.46863
5.46762 -12.1496 5.46753
8.73731 -12.1283 5.46538
11.136 -12.112 5.46308
12.2311 -12.2311 5.46224
-12.112 -11.136 5.46309
-11.0532 -11.0532 5.45881
-8.71351 -11.0419 5.45977
-5.46124 -11.0404 5.46118
-1.86301 -11.0412 5.46195
1.86298 -11.0412 5.46194
5.46121 -11.0404 5.46117
8.71349 -11.0419 5.45978
11.0532 -11.0532 5.45882
12.112 -11.136 5.46309
-12.1283 -8.73733 5.46539
-11.0419 -8.71353 5.45975
-8.70948 -8.70948 5.46033
-5.46178 -8.70863 5.46186
-1.86363 -8.70859 5.46248
1.8636 -8.70864 5.46247
5.46181 -8.70863 5.46184
8.70947 -8.70949 5.4603
11.0419 -8.71352 5.45978
12.1283 -8.73732 5.46538
-12.1496 -5.46761 5.46753
-11.0404 -5.46125 5.46124
-8.70863 -5.46179 5.46184
-5.46314 -5.46314 5.46306
-1.86444 -5.46392 5.46394
1.86447 -5.46393 5.46394
5.46321 -5.46314 5.46312
8.70868 -5.46179 5.46187
11.0405 -5.46124 5.46119
12.1497 -5.4676 5.46754
-12.16 -1.86426 5.46862
-11.0412 -1.863 5.4619
-8.7086 -1.86362 5.46247
-5.46392 -1.86441 5.46395
-1.86488 -1.86488 5.46456
1.86486 -1.86492 5.46453
5.46391 -1.8644 5.46394
8.70863 -1.86362 5.46244
11.0412 -1.86301 5.46193
12.16 -1.86428 5.46862
-12.16 1.86426 5.46862
-11.0412 1.86297 5.46194
-8.70861 1.8636 5.46246
-5.46393 1.86445 5.4639
-1.86489 1.86486 5.46463
1.86485 1.86482 5.46464
5.46386 1.86447 5.46387
8.7086 1.8636 5.46245
11.0411 1.86298 5.46199
12.1599 1.86424 5.46862
-12.1496 5.46758 5.46758
-11.0404 5.46121 5.46117
-8.70861 5.46178 5.46184
-5.46313 5.46321 5.46316
-1.86442 5.46392 5.46385
1.8645 5.46386 5.46391
5.46321 5.46325 5.46318
8.7087 5.46178 5.46183
11.0405 5.46124 5.46115
12.1497 5.46765 5.46755
-12.1283 8.7373 5.46537
-11.0419 8.71344 5.45974
-8.70949 8.70944 5.46031
-5.46179 8.70866 5.46181
-1.86363 8.70864 5.46246
1.86359 8.7086 5.46248
5.46182 8.70869 5.46176
8.70947 8.70941 5.46034
11.0419 8.71347 5.45975
12.1283 8.73736 5.46538
-12.112 11.1361 5.46313
-11.0532 11.0532 5.45879
-8.7135 11.0419 5.45975
-5.46124 11.0405 5.46117
-1.863 11.0412 5.46194
1.86301 11.0411 5.46193
5.46125 11.0405 5.46119
8.71347 11.0419 5.45975
11.0532 11.0532 5.45884
12.112 11.1361 5.46313
-12.2311 12.2311 5.46225
-11.136 12.112 5.46311
-8.73732 12.1283 5.46536
-5.4676 12.1496 5.46754
-1.86426 12.16 5.4686
1.86429 12.1599 5.4686
5.46763 12.1497 5.46754
8.73737 12.1282 5.46536
11.1361 12.112 5.46311
12.2311 12.2311 5.46224
-12.2094 -12.2094 8.74332
-11.135 -12.089 8.73626
-8.73625 -12.1061 8.73617
-5.4654 -12.1283 8.73726
-1.8632 -12.1389 8.73793
1.86325 -12.1389 8.73797
5.4654 -12.1283 8.73727
8.73627 -12.1061 8.73622
11.135 -12.089 8.73624
12.2094 -12.2094 8.74331
-12.089 -11.135 8.73624