# vtk DataFile Version 3.0 
Lennard-Jones particle simulation 
ASCII 
DATASET UNSTRUCTURED_GRID 
POINTS 1000 float 
-4.98849 -4.98849 -4.98849
-3.29211 -4.96153 -4.96153
-1.30303 -4.96382 -4.96382
0.939726 -4.96791 -4.96792
3.30011 -4.97007 -4.97007
5.6999 -4.97006 -4.97007
8.06029 -4.96791 -4.96792
10.303 -4.96382 -4.96382
12.2921 -4.96153 -4.96154
13.9885 -4.98849 -4.98849
-4.96153 -3.29211 -4.96153
-3.27943 -3.27943 -4.9252
-1.29996 -3.28002 -4.92599
0.939846 -3.28134 -4.92986
3.29997 -3.28213 -4.93204
5.70001 -3.28213 -4.93204
8.06015 -3.28135 -4.92986
10.3 -3.28002 -4.92598
12.2794 -3.27943 -4.9252
13.9615 -3.29211 -4.96154
-4.96382 -1.30303 -4.96382
-3.28002 -1.29996 -4.92598
-1.30142 -1.30142 -4.92628
0.938435 -1.3028 -4.92991
3.29945 -1.30344 -4.93205
5.70056 -1.30344 -4.93205
8.06157 -1.3028 -4.92991
10.3014 -1.30142 -4.92628
12.28 -1.29996 -4.92599
13.9638 -1.30303 -4.96383
-4.96791 0.939725 -4.96791
-3.28135 0.939843 -4.92986
-1.3028 0.938443 -4.92992
0.93722 0.937219 -4.93338
3.29895 0.936653 -4.93545
5.70105 0.936652 -4.93545
8.06278 0.93722 -4.93341
10.3028 0.938437 -4.92991
12.2814 0.939851 -4.92986
13.9679 0.939722 -4.96791
-4.97007 3.30012 -4.97007
-3.28214 3.29998 -4.93204
-1.30345 3.29945 -4.93204
0.936646 3.29895 -4.93547
3.29872 3.29872 -4.93746
5.70128 3.29872 -4.93747
8.06334 3.29896 -4.93544
10.3034 3.29945 -4.93205
12.2821 3.29998 -4.93204
13.9701 3.30011 -4.97007
-4.97006 5.69989 -4.97006
-3.28213 5.70002 -4.93203
-1.30345 5.70056 -4.93205
0.93665 5.70104 -4.93543
3.29873 5.70127 -4.93745
5.70128 5.70128 -4.93745
8.06336 5.70104 -4.93545
10.3035 5.70056 -4.93204
12.2821 5.70003 -4.93204
13.9701 5.6999 -4.97006
-4.96792 8.06029 -4.96792
-3.28135 8.06016 -4.92987
-1.30281 8.06159 -4.92992
0.937215 8.06277 -4.9334
3.29895 8.06335 -4.93546
5.70104 8.06334 -4.93546
8.06277 8.06277 -4.93339
10.3028 8.06156 -4.92992
12.2814 8.06015 -4.92987
13.9679 8.06028 -4.96792
-4.96382 10.303 -4.96383
-3.28002 10.3 -4.92598
-1.30142 10.3014 -4.92628
0.938435 10.3028 -4.92992
3.29945 10.3035 -4.93204
5.70057 10.3035 -4.93204
8.06157 10.3028 -4.92993
10.3014 10.3014 -4.92628
12.28 10.3 -4.92599
13.9638 10.303 -4.96383
-4.96153 12.2921 -4.96154
-3.27944 12.2794 -4.9252
-1.29997 12.28 -4.92599
0.939845 12.2814 -4.92987
3.29998 12.2821 -4.93205
5.70001 12.2821 -4.93204
8.06016 12.2814 -4.92986
10.3 12.28 -4.92599
12.2794 12.2794 -4.9252
13.9615 12.2921 -4.96154
-4.98849 13.9885 -4.98849
-3.29211 13.9615 -4.96154
-1.30303 13.9638 -4.96383
0.939723 13.9679 -4.96792
3.30011 13.9701 -4.97007
5.6999 13.9701 -4.97007
8.06028 13.9679 -4.96792
10.303 13.9638 -4.96383
12.2921 13.9615 -4.96154
13.9885 13.9885 -4.98849
-4.96153 -4.96153 -3.29212
-3.27944 -4.9252 -3.27943
-1.29997 -4.92599 -3.28002
0.939847 -4.92986 -3.28135
3.29998 -4.93204 -3.28214
5.70001 -4.93204 -3.28213
8.06016 -4.92986 -3.28135
10.3 -4.92599 -3.28002
12.2794 -4.9252 -3.27944
13.9615 -4.96153 -3.29211
-4.92519 -3.27943 -3.27943
-3.25902 -3.25902 -3.25903
-1.29289 -3.25794 -3.25793
0.94183 -3.25866 -3.25866
3.30037 -3.25926 -3.25926
5.69963 -3.25926 -3.25926
8.05816 -3.25866 -3.25866
10.2929 -3.25794 -3.25793
12.259 -3.25903 -3.25903
13.9252 -3.27943 -3.27944
-4.92599 -1.29996 -3.28002
-3.25794 -1.29289 -3.25793
-1.2934 -1.2934 -3.25643
0.94087 -1.29435 -3.25694
3.29996 -1.29484 -3.25751
5.70004 -1.29483 -3.25751
8.05913 -1.29435 -3.25694
10.2934 -1.2934 -3.25644
12.2579 -1.2929 -3.25794
13.926 -1.29997 -3.28003
-4.92985 0.939846 -3.28135
-3.25865 0.941839 -3.25866
-1.29435 0.940872 -3.25696
0.939845 0.939847 -3.25737
3.29954 0.939364 -3.2579
5.70047 0.939365 -3.2579
8.06016 0.939846 -3.25739
10.2944 0.940875 -3.25694
12.2587 0.941835 -3.25865
13.9299 0.939844 -3.28135
-4.93204 3.29998 -3.28214
-3.25926 3.30038 -3.25926
-1.29484 3.29996 -3.25751
0.939363 3.29952 -3.25791
3.29932 3.29931 -3.25838
5.70069 3.29932 -3.25839
8.06066 3.29952 -3.25789
10.2948 3.29997 -3.25752
12.2593 3.30038 -3.25926
13.932 3.29998 -3.28213
-4.93205 5.70002 -3.28213
-3.25927 5.69962 -3.25925
-1.29485 5.70003 -3.25752
0.939359 5.70048 -3.25788
3.29931 5.70069 -3.25837
5.70069 5.70069 -3.25836
8.06065 5.70047 -3.2579
10.2948 5.70003 -3.25751
12.2593 5.69962 -3.25926
13.932 5.70002 -3.28213
-4.92986 8.06016 -3.28136
-3.25865 8.05817 -3.25867
-1.29435 8.05912 -3.25695
0.939843 8.06015 -3.25739
3.29954 8.06065 -3.25791
5.70047 8.06065 -3.25791
8.06016 8.06015 -3.25737
10.2944 8.05913 -3.25696
12.2587 8.05817 -3.25866
13.9299 8.06016 -3.28136
-4.92599 10.3 -3.28003
-3.25794 10.2929 -3.25794
-1.2934 10.2934 -3.25644
0.940872 10.2944 -3.25696
3.29996 10.2948 -3.25751
5.70003 10.2948 -3.25751
8.05913 10.2944 -3.25697
10.2934 10.2934 -3.25643
12.2579 10.2929 -3.25794
13.926 10.3 -3.28003
-4.9252 12.2794 -3.27944
-3.25903 12.259 -3.25903
-1.2929 12.2579 -3.25794
0.941827 12.2587 -3.25867
3.30037 12.2593 -3.25927
5.69963 12.2593 -3.25927
8.05816 12.2587 -3.25866
10.2929 12.2579 -3.25795
12.259 12.259 -3.25903
13.9252 12.2794 -3.27944
-4.96154 13.9615 -3.29211
-3.27944 13.9252 -3.27944
-1.29997 13.926 -3.28003
0.939844 13.9299 -3.28135
3.29997 13.932 -3.28214
5.7 13.932 -3.28214
8.06016 13.9299 -3.28136
10.3 13.926 -3.28003
12.2794 13.9252 -3.27944
13.9615 13.9615 -3.29212
-4.96383 -4.96383 -1.30304
-3.28003 -4.926 -1.29996
-1.30143 -4.92627 -1.30142
0.93843 -4.92992 -1.30281
3.29944 -4.93205 -1.30345
5.70057 -4.93205 -1.30345
8.06157 -4.92992 -1.30281
10.3014 -4.92628 -1.30142
12.28 -4.92599 -1.29997
13.9638 -4.96383 -1.30304
-4.926 -3.28003 -1.29996
-3.25795 -3.25795 -1.2929
-1.2934 -3.25642 -1.2934
0.940868 -3.25696 -1.29436
3.29996 -3.25752 -1.29483
5.70004 -3.25752 -1.29483
8.05913 -3.25695 -1.29435
10.2934 -3.25643 -1.2934
12.258 -3.25794 -1.2929
13.926 -3.28003 -1.29997
-4.92627 -1.30143 -1.30142
-3.25642 -1.2934 -1.2934
-1.29367 -1.29367 -1.29368
0.940002 -1.29452 -1.2945
3.29958 -1.29497 -1.29498
5.70042 -1.29498 -1.29497
8.05999 -1.29451 -1.2945
10.2937 -1.29368 -1.29368
12.2564 -1.2934 -1.2934
13.9263 -1.30143 -1.30142
-4.92993 0.938432 -1.3028
-3.25696 0.940867 -1.29435
-1.29452 0.940003 -1.29451
0.939025 0.939032 -1.29531
3.29915 0.938553 -1.29576
5.70084 0.938549 -1.29575
8.06097 0.93904 -1.29533
10.2945 0.939988 -1.2945
12.2569 0.940868 -1.29435
13.9299 0.938431 -1.3028
-4.93205 3.29944 -1.30345
-3.25752 3.29996 -1.29484
-1.29498 3.29956 -1.29498
0.938545 3.29916 -1.29577
3.29894 3.29895 -1.29618
5.70105 3.29894 -1.29619
8.06143 3.29916 -1.29575
10.295 3.29956 -1.29498
12.2575 3.29996 -1.29484
13.932 3.29944 -1.30345
-4.93206 5.70056 -1.30345
-3.25752 5.70003 -1.29483
-1.29497 5.70042 -1.29498
0.938554 5.70083 -1.29574
3.29895 5.70106 -1.29617
5.70106 5.70105 -1.29616
8.06145 5.70085 -1.29576
10.295 5.7004 -1.29497
12.2575 5.70004 -1.29483
13.9321 5.70055 -1.30345
-4.9299 8.06156 -1.30281
-3.25694 8.05913 -1.29436
-1.29451 8.05999 -1.29451
0.93903 8.06096 -1.29532
3.29915 8.06145 -1.29577
5.70084 8.06144 -1.29577
8.06096 8.06097 -1.29531
10.2945 8.05998 -1.29452
12.2569 8.05913 -1.29436
13.9299 8.06156 -1.30281
-4.92626 10.3014 -1.30143
-3.25641 10.2934 -1.2934
-1.29366 10.2937 -1.29368
0.940016 10.2945 -1.29452
3.29958 10.295 -1.29497
5.70042 10.295 -1.29497
8.06 10.2945 -1.29453
10.2937 10.2937 -1.29367
12.2564 10.2934 -1.29341
13.9263 10.3014 -1.30143
-4.92598 12.28 -1.29997
-3.25794 12.2579 -1.29291
-1.29339 12.2564 -1.2934
0.940878 12.2569 -1.29436
3.29996 12.2575 -1.29484
5.70003 12.2575 -1.29484
8.05913 12.2569 -1.29435
10.2934 12.2564 -1.29341
12.2579 12.2579 -1.2929
13.926 12.28 -1.29997
-4.96382 13.9638 -1.30304
-3.28001 13.926 -1.29997
-1.30142 13.9263 -1.30143
0.938441 13.9299 -1.30281
3.29945 13.932 -1.30345
5.70056 13.932 -1.30345
8.06157 13.9299 -1.30281
10.3014 13.9263 -1.30143
12.28 13.926 -1.29997
13.9638 13.9638 -1.30304
-4.9679 -4.9679 0.93971
-3.28133 -4.92985 0.939842
-1.30279 -4.92991 0.938435
0.937225 -4.93338 0.937211
3.29896 -4.93545 0.936649
5.70104 -4.93545 0.936648
8.06277 -4.93338 0.937207
10.3028 -4.9299 0.938438
12.2813 -4.92985 0.939838
13.9679 -4.9679 0.93971
-4.92984 -3.28133 0.939839
-3.25864 -3.25864 0.941831
-1.29434 -3.25695 0.940854
0.93985 -3.25737 0.939832
3.29954 -3.2579 0.939364
5.70046 -3.2579 0.939362
8.06014 -3.25737 0.939835
10.2943 -3.25694 0.940873
12.2586 -3.25864 0.941829
13.9298 -3.28134 0.939847
-4.92991 -1.30279 0.938437
-3.25695 -1.29434 0.940871
-1.29451 -1.29451 0.939993
0.939031 -1.2953 0.939045
3.29916 -1.29576 0.938552
5.70084 -1.29575 0.93855
8.06097 -1.29531 0.939049
10.2945 -1.2945 0.939984
12.257 -1.29434 0.940865
13.9299 -1.30279 0.938427
-4.93338 0.937227 0.93721
-3.25737 0.939849 0.939844
-1.2953 0.939039 0.939033
0.938084 0.938086 0.938074
3.29876 0.937593 0.937603
5.70127 0.937599 0.937605
8.06194 0.938075 0.938058
10.2953 0.939049 0.939052
12.2574 0.939844 0.939835
13.9334 0.937224 0.937215
-4.93545 3.29896 0.936641
-3.2579 3.29953 0.939353
-1.29576 3.29916 0.938546
0.937594 3.29875 0.93759
3.29853 3.29852 0.937133
5.70147 3.29853 0.937122
8.0624 3.29875 0.937609
10.2958 3.29916 0.938539
12.2579 3.29953 0.939357
13.9355 3.29897 0.936643
-4.93545 5.70105 0.936653
-3.2579 5.70045 0.939365
-1.29576 5.70084 0.938551
0.937595 5.70126 0.937612
3.29852 5.70147 0.93715
5.70146 5.70146 0.937156
8.06239 5.70126 0.93759
10.2958 5.70084 0.938554
12.2579 5.70046 0.939363
13.9355 5.70104 0.936647
-4.93339 8.06277 0.937212
-3.25737 8.06014 0.939825
-1.2953 8.06097 0.939038
0.938089 8.06194 0.938069
3.29875 8.06239 0.937582
5.70128 8.0624 0.937583
8.06195 8.06193 0.938082
10.2953 8.06098 0.939032
12.2574 8.06015 0.939828
13.9334 8.06278 0.937208
-4.92992 10.3028 0.938433
-3.25695 10.2943 0.940867
-1.29452 10.2945 0.939979
0.939027 10.2953 0.939022
3.29915 10.2958 0.938551
5.70084 10.2958 0.938559
8.06097 10.2953 0.939012
10.2945 10.2945 0.939996
12.2569 10.2943 0.940857
13.9299 10.3028 0.93843
-4.92985 12.2813 0.939837
-3.25864 12.2586 0.941828
-1.29434 12.2569 0.940868
0.939848 12.2574 0.939829
3.29954 12.2579 0.939362
5.70046 12.2579 0.93936
8.06014 12.2574 0.939838
10.2943 12.2569 0.94085
[...]
POINT_DATA 1000
SCALARS mass float 
LOOKUP_TABLE default 
1
1
1
1
1
1
1
1
1
1
1
1
1
1
1
1
1
1
1
1
1
1
1
1
1
1
1
1
1
1
1
1
1
1
1
1
1
1
1
1
1
1
1
1
1
1
1
1
1
1
1
1
1
1
1
1
1
1
1
1
1
1
1
1
1
1
1
1
1
1
1
1
1
1
1
1
1
1
1
1
1
1
1
1
1
1
1
1
1
1
1
1
1
1
1
1
1
1
1
1
1
1
1
1
1
1
1
1
1
1
1
1
1
1
1
1
1
1
1
1
1
1
1
1
1
1
1
1
1
1
1
1
1
1
1
1
1
1
1
1
1
1
1
1
1
1
1
1
1
1
1
1
1
1
1
1
1
1
1
1
1
1
1
1
1
1
1
1
1
1
1
1
1
1
1
1
1
1
1
1
1
1
1
1
1
1
1
1
1
1
1
1
1
1
1
1
1
1
1
1
1
1
1
1
1
1
1
1
1
1
1
1
1
1
1
1
1
1
1
1
1
1
1
1
1
1
1
1
1
1
1
1
1
1
1
1
1
1
1
1
1
1
1
1
1
1
1
1
1
1
1
1
1
1
1
1
1
1
1
1
1
1
1
1
1
1
1
1
1
1
1
1
1
1
1
1
1
1
1
1
1
1
1
1
1
1
1
1
1
1
1
1
1
1
1
1
1
1
1
1
1
1
1
1
1
1
1
1
1
1
1
1
1
1
1
1
1
1
1
1
1
1
1
1
1
1
1
1
1
1
1
1
1
1
1
1
1
1
1
1
1
1
1
1
1
1
1
1
1
1
1
1
1
1
1
1
1
1
1
1
1
1
1
1
1
1
1
1
1
1
1
1
1
1
1
1
1
1
1
1
1
1
1
1
1
1
1
1
1
1
1
1
1
1
1
1
1
1
1
1
1
1
1
1
1
1
1
1
1
1
1
1
1
1
1
1
1
1
1
1
1
1
1
1
1
1
1
1
1
1
1
1
1
1
1
1
1
1
1
1
1
1
1
1
1
1
1
1
1
1
1
1
1
1
1
1
1
1
1
1
1
1
1
1
1
1
1
1
1
1
1
1
1
1
1
1
1
1
1
1
1
1
1
1
1
1
1
1
1
1
1
1
1
1
1
1
1
1
1
1
1
1
1
1
1
1
1
1
1
1
1
1
1
1
1
1
1
1
1
1
1
1
1
1
1
1
1
1
1
1
1
1
1
1
1
1
1
1
1
1
1
1
1
1
1
1
1
1
1
1
1
1
1
1
1
1
1
1
1
1
1
1
1
1
1
1
1
1
1
1
1
1
1
1
1
1
1
1
1
1
1
1
1
1
1
1
1
1
1
1
1
1
1
1
1
1
1
1
1
1
1
1
1
1
1
1
1
1
1
1
1
1
1
1
1
1
1
1
1
1
1
1
1
1
1
1
1
1
1
1
1
1
1
1
1
1
1
1
1
1
1
1
1
1
1
1
1
1
1
1
1
1
1
1
1
1
1
1
1
1
1
1
1
1
1
1
1
1
1
1
1
1
1
1
1
1
1
1
1
1
1
1
1
1
1
1
1
1
1
1
1
1
1
1
1
1
1
1
1
1
1
1
1
1
1
1
1
1
1
1
1
1
1
1
1
1
1
1
1
1
1
1
1
1
1
1
1
1
1
1
1
1
1
1
1
1
1
1
1
1
1
1
1
1
1
1
1
1
1
1
1
1
1
1
1
1
1
1
1
1
1
1
1
1
1
1
1
1
1
1
1
1
1
1
1
1
1
1
1
1
1
1
1
1
1
1
1
1
1
1
1
1
1
1
1
1
1
1
1
1
1
1
1
1
1
1
1
1
1
1
1
1
1
1
1
1
1
1
1
1
1
1
1
1
1
1
1
1
1
1
1
1
1
1
1
1
1
1
1
1
1
1
1
1
1
1
1
1
1
1
1
1
1
1
1
1
1
1
1
1
1
1
1
1
1
1
1
1
1
1
1
1
1
1
1
1
1
1
1
1
1
1
1
1
1
1
1
1
1
1
1
1
1
1
1
1
1
1
1
1
1
1
1
1
1
1
1
1
1
1
1
1
1
1
1
1
1
1
1
1
1
1
1
1
1
1
1
1
1
1
1
1
1
1
1
1
1
1
1
1
1
1
1
1
1
1
1
1
1
1
1
1
1
1
1
1
1
1
1
1
1
1
1
1
1
1
1
1
1
1
1
1
1
1
1
1
1
1
1
1
1
1
1
1
1
1
1
1
1
1
1
1
1
1
1
1
1
1
1
1
VECTORS velocity float 
-12.3014 -12.3014 -12.3014
-11.1778 -12.2088 -12.2088
-8.73869 -12.2275 -12.2275
-5.461 -12.2485 -12.2485
-1.86114 -12.2584 -12.2584
1.86117 -12.2584 -12.2584
5.46105 -12.2485 -12.2485
8.73868 -12.2275 -12.2275
11.1778 -12.2088 -12.2088
12.3014 -12.3014 -12.3014
-12.2088 -11.1778 -12.2088
-11.1304 -11.1304 -12.0908
-8.73118 -11.127 -12.1082
-5.46171 -11.1283 -12.1304
-1.86183 -11.1297 -12.1411
1.86177 -11.1297 -12.1411
5.46172 -11.1283 -12.1304
8.73118 -11.127 -12.1081
11.1304 -11.1304 -12.0908
12.2087 -11.1778 -12.2088
-12.2275 -8.7387 -12.2275
-11.127 -8.73118 -12.1081
-8.73149 -8.73148 -12.1241
-5.46411 -8.7327 -12.1455
-1.86286 -8.73339 -12.1559
1.86291 -8.73339 -12.1559
5.46412 -8.7327 -12.1455
8.73147 -8.73148 -12.1241
11.127 -8.73116 -12.1082
12.2275 -8.73867 -12.2275
-12.2485 -5.461 -12.2485
-11.1283 -5.46172 -12.1304
-8.73271 -5.46408 -12.1455
-5.46636 -5.46635 -12.1662
-1.86395 -5.46741 -12.1763
1.86395 -5.46741 -12.1763
5.46636 -5.46636 -12.1662
8.7327 -5.4641 -12.1455
11.1283 -5.4617 -12.1304
12.2485 -5.46101 -12.2485
-12.2584 -1.86111 -12.2584
-11.1297 -1.86181 -12.1411
-8.73341 -1.86287 -12.1559
-5.46742 -1.86395 -12.1764
-1.86446 -1.86445 -12.1863
1.86447 -1.86445 -12.1863
5.46737 -1.86394 -12.1763
8.73336 -1.86287 -12.156
11.1297 -1.86182 -12.1411
12.2584 -1.86113 -12.2584
-12.2584 1.86111 -12.2584
-11.1297 1.86183 -12.1411
-8.73341 1.8629 -12.1559
-5.46741 1.86394 -12.1763
-1.86443 1.86443 -12.1863
1.86446 1.86444 -12.1863
5.46742 1.86394 -12.1763
8.73343 1.8629 -12.1559
11.1297 1.86183 -12.1411
12.2584 1.86114 -12.2584
-12.2485 5.46106 -12.2485
-11.1283 5.46173 -12.1305
-8.73273 5.46417 -12.1455
-5.46636 5.46632 -12.1662
-1.86396 5.4674 -12.1763
1.86391 5.46739 -12.1764
5.46633 5.46633 -12.1662
8.73271 5.46409 -12.1455
11.1283 5.4617 -12.1305
12.2485 5.46102 -12.2485
-12.2275 8.73868 -12.2275
-11.127 8.73116 -12.1081
-8.73149 8.73148 -12.1241
-5.46411 8.73272 -12.1455
-1.86286 8.73341 -12.1559
1.86291 8.73341 -12.1559
5.46412 8.73272 -12.1455
8.73148 8.73148 -12.1241
11.127 8.7312 -12.1082
12.2275 8.73869 -12.2275
-12.2088 11.1778 -12.2088
-11.1304 11.1304 -12.0908
-8.73119 11.127 -12.1082
-5.46171 11.1283 -12.1305
-1.8618 11.1297 -12.1411
1.86179 11.1297 -12.1411
5.46174 11.1283 -12.1304
8.73116 11.127 -12.1082
11.1304 11.1304 -12.0908
12.2088 11.1778 -12.2088
-12.3014 12.3014 -12.3014
-11.1778 12.2088 -12.2088
-8.73869 12.2275 -12.2275
-5.46101 12.2485 -12.2485
-1.86114 12.2584 -12.2584
1.86116 12.2584 -12.2584
5.46103 12.2485 -12.2485
8.73869 12.2275 -12.2275
11.1778 12.2088 -12.2088
12.3014 12.3014 -12.3014
-12.2088 -12.2088 -11.1778
-11.1304 -12.0908 -11.1304
-8.73119 -12.1082 -11.127
-5.46171 -12.1304 -11.1283
-1.86182 -12.1411 -11.1297
1.86177 -12.1411 -11.1297
5.46174 -12.1304 -11.1283
8.73116 -12.1082 -11.127
11.1304 -12.0908 -11.1305
12.2087 -12.2088 -11.1778
-12.0908 -11.1304 -11.1304
-11.055 -11.055 -11.055
-8.71164 -11.0459 -11.0459
-5.4573 -11.0454 -11.0454
-1.86108 -11.0464 -11.0464
1.86111 -11.0464 -11.0464
5.45724 -11.0454 -11.0454
8.71169 -11.0459 -11.0459
11.0551 -11.055 -11.055
12.0908 -11.1304 -11.1304
-12.1082 -8.73117 -11.127
-11.046 -8.71164 -11.0459
-8.7087 -8.70869 -11.0357
-5.45825 -8.70829 -11.0347
-1.8618 -8.70841 -11.0357
1.86178 -8.7084 -11.0357
5.45826 -8.7083 -11.0347
8.7087 -8.70868 -11.0357
11.0459 -8.71165 -11.046
12.1082 -8.73119 -11.127
-12.1304 -5.46171 -11.1283
-11.0454 -5.45726 -11.0454
-8.70831 -5.45825 -11.0348
-5.45981 -5.45981 -11.0335
-1.86262 -5.46055 -11.0343
1.86264 -5.46055 -11.0343
5.45983 -5.45981 -11.0335
8.70832 -5.45824 -11.0347
11.0454 -5.45728 -11.0454
12.1305 -5.46172 -11.1283
-12.1411 -1.86182 -11.1297
-11.0464 -1.86108 -11.0464
-8.7084 -1.86179 -11.0357
-5.46056 -1.86267 -11.0343
-1.86308 -1.8631 -11.0349
1.86311 -1.86307 -11.0349
5.46062 -1.86268 -11.0343
8.70842 -1.86176 -11.0357
11.0464 -1.86107 -11.0464
12.1411 -1.86181 -11.1297
-12.1411 1.86181 -11.1297
-11.0465 1.86107 -11.0464
-8.70844 1.86177 -11.0357
-5.46057 1.86267 -11.0342
-1.86312 1.86312 -11.0349
1.86311 1.8631 -11.0349
5.4606 1.86266 -11.0343
8.70842 1.86175 -11.0356
11.0464 1.86106 -11.0464
12.1411 1.8618 -11.1297
-12.1304 5.46173 -11.1283
-11.0454 5.45729 -11.0455
-8.70831 5.45823 -11.0347
-5.45981 5.4598 -11.0335
-1.86263 5.4606 -11.0343
1.86265 5.46061 -11.0343
5.45984 5.45981 -11.0335
8.70833 5.45826 -11.0348
11.0455 5.45728 -11.0454
12.1305 5.46174 -11.1283
-12.1082 8.73117 -11.127
-11.046 8.71168 -11.0459
-8.7087 8.70873 -11.0357
-5.45825 8.70834 -11.0348
-1.8618 8.70842 -11.0357
1.86176 8.70843 -11.0357
5.45824 8.70833 -11.0348
8.70873 8.70874 -11.0357
11.0459 8.71167 -11.046
12.1082 8.73116 -11.127
-12.0908 11.1304 -11.1305
-11.0551 11.0551 -11.0551
-8.71164 11.0459 -11.0459
-5.4573 11.0455 -11.0455
-1.86109 11.0464 -11.0464
1.86111 11.0464 -11.0464
5.45724 11.0455 -11.0454
8.71169 11.0459 -11.046
11.0551 11.0551 -11.0551
12.0908 11.1304 -11.1305
-12.2088 12.2088 -11.1778
-11.1305 12.0908 -11.1304
-8.7312 12.1082 -11.127
-5.46172 12.1305 -11.1283
-1.86183 12.1411 -11.1297
1.86176 12.1411 -11.1297
5.46174 12.1305 -11.1283
8.73117 12.1082 -11.127
11.1304 12.0908 -11.1305
12.2087 12.2088 -11.1778
-12.2275 -12.2275 -8.73871
-11.127 -12.1082 -8.73119
-8.73151 -12.1241 -8.73147
-5.46412 -12.1455 -8.73272
-1.86288 -12.1559 -8.7334
1.86292 -12.1559 -8.7334
5.46414 -12.1455 -8.73272
8.73149 -12.1241 -8.73147
11.127 -12.1082 -8.7312
12.2275 -12.2275 -8.7387
-12.1082 -11.127 -8.73118
-11.046 -11.046 -8.71164
-8.70871 -11.0357 -8.70869
-5.45826 -11.0348 -8.70833
-1.8618 -11.0357 -8.7084
1.86178 -11.0357 -8.7084
5.45827 -11.0347 -8.70831
8.70874 -11.0357 -8.70869
11.046 -11.046 -8.71165
12.1082 -11.127 -8.7312
-12.1241 -8.7315 -8.73148
-11.0357 -8.7087 -8.70869
-8.70522 -8.70521 -8.70524
-5.45903 -8.70462 -8.70458
-1.86243 -8.70465 -8.70466
1.86241 -8.70466 -8.70466
5.45902 -8.70461 -8.70457
8.70522 -8.70525 -8.70526
11.0357 -8.70869 -8.70871
12.1241 -8.7315 -8.73149
-12.1455 -5.46412 -8.73271
-11.0348 -5.45826 -8.70829
-8.70463 -5.45903 -8.70459
-5.46049 -5.46047 -8.70391
-1.86328 -5.46123 -8.70394
1.86325 -5.46124 -8.70392
5.46049 -5.46045 -8.70397
8.70456 -5.45907 -8.70456
11.0347 -5.45826 -8.70831
12.1455 -5.46412 -8.7327
-12.156 -1.86289 -8.73342
-11.0357 -1.86178 -8.70842
-8.70466 -1.86247 -8.70466
-5.46125 -1.86328 -8.70398
-1.86371 -1.86369 -8.70391
1.86368 -1.86371 -8.70395
5.46119 -1.86327 -8.70392
8.70461 -1.86248 -8.70467
11.0357 -1.86179 -8.70842
12.1559 -1.86288 -8.73342
-12.156 1.86289 -8.7334
-11.0357 1.86175 -8.7084
-8.70465 1.86242 -8.70467
-5.46123 1.86324 -8.70389
-1.86369 1.8637 -8.70387
1.8637 1.86369 -8.70384
5.46126 1.8633 -8.70395
8.70465 1.86237 -8.70466
11.0357 1.86178 -8.70839
12.156 1.86287 -8.73341
-12.1455 5.46409 -8.73274
-11.0347 5.45826 -8.70832
-8.70459 5.459 -8.70459
-5.46048 5.46046 -8.70394
-1.8633 5.46123 -8.70396
1.86326 5.46121 -8.70396
5.46047 5.46049 -8.70389
8.7045 5.459 -8.70462
11.0347 5.45825 -8.70833
12.1454 5.46409 -8.73275
-12.1241 8.73148 -8.7315
-11.0357 8.70874 -8.70869
-8.70519 8.70519 -8.70524
-5.45899 8.70456 -8.70462
-1.86242 8.70463 -8.70466
1.86242 8.70463 -8.70463
5.45903 8.70459 -8.70464
8.7052 8.70519 -8.70521
11.0357 8.70873 -8.70871
12.1241 8.73148 -8.7315
-12.1081 11.127 -8.73121
-11.0459 11.0459 -8.71166
-8.70868 11.0357 -8.70869
-5.45823 11.0347 -8.70833
-1.86178 11.0357 -8.70842
1.86175 11.0357 -8.70842
5.45827 11.0347 -8.70831
8.70874 11.0357 -8.70872
11.0459 11.0459 -8.71165
12.1082 11.127 -8.73121
-12.2275 12.2275 -8.73872
-11.127 12.1082 -8.7312
-8.73147 12.1241 -8.7315
-5.46409 12.1455 -8.73273
-1.86287 12.156 -8.73342
1.86291 12.1559 -8.73341
5.46412 12.1455 -8.73272
8.73149 12.1241 -8.73151
11.127 12.1082 -8.73121
12.2275 12.2275 -8.73873
-12.2485 -12.2485 -5.46104
-11.1282 -12.1304 -5.46172
-8.73268 -12.1455 -5.46411
-5.46634 -12.1662 -5.46637
-1.86393 -12.1763 -5.46742
1.86394 -12.1763 -5.46742
5.46633 -12.1662 -5.46639
8.73269 -12.1455 -5.4641
11.1283 -12.1304 -5.46173
12.2485 -12.2485 -5.46104
-12.1304 -11.1282 -5.46173
-11.0454 -11.0454 -5.45729
-8.70828 -11.0347 -5.45831
-5.4598 -11.0335 -5.45985
-1.86263 -11.0343 -5.46056
1.86262 -11.0343 -5.46056
5.45976 -11.0335 -5.45984
8.70826 -11.0347 -5.45824
11.0453 -11.0454 -5.4573
12.1304 -11.1283 -5.46171
-12.1455 -8.73267 -5.4641
-11.0347 -8.70828 -5.45825
-8.70461 -8.70459 -5.45906
-5.46047 -8.70388 -5.46044
-1.86328 -8.70394 -5.46122
1.86327 -8.70392 -5.46123
5.46048 -8.7039 -5.46042
8.70459 -8.70457 -5.45908
11.0348 -8.7083 -5.45826
12.1455 -8.73268 -5.46413
-12.1661 -5.46634 -5.46639
-11.0335 -5.4598 -5.45982
-8.70388 -5.46045 -5.46047
-5.46188 -5.46187 -5.4619
-1.86406 -5.46267 -5.46264
1.86414 -5.46265 -5.46264
5.46196 -5.4619 -5.46195
8.70394 -5.46043 -5.46041
11.0335 -5.45982 -5.45984
12.1662 -5.46634 -5.46637
-12.1763 -1.86393 -5.46743
-11.0343 -1.86264 -5.46059
-8.70393 -1.86328 -5.46124
-5.46267 -1.86409 -5.46268
-1.86455 -1.86456 -5.46338
1.86453 -1.86454 -5.46341
5.46265 -1.86408 -5.46262
8.70395 -1.86326 -5.46127
11.0343 -1.86264 -5.46057
12.1763 -1.86391 -5.46743
-12.1763 1.86396 -5.4674
-11.0343 1.86261 -5.46055
-8.70394 1.86327 -5.46123
-5.46267 1.86412 -5.46261
-1.86457 1.86454 -5.46334
1.86453 1.86452 -5.46332
5.46264 1.86411 -5.46268
8.70393 1.86327 -5.46122
11.0342 1.86261 -5.46056
12.1763 1.86392 -5.46742
-12.1662 5.46634 -5.46637
-11.0335 5.45976 -5.45988
-8.70389 5.4605 -5.46045
-5.46186 5.46195 -5.46192
-1.8641 5.46262 -5.4627
1.86418 5.46265 -5.4627
5.46198 5.46192 -5.46188
8.70396 5.4605 -5.46047
11.0335 5.45982 -5.45986
12.1662 5.46635 -5.46638
-12.1455 8.73269 -5.46411
-11.0347 8.70826 -5.45826
-8.70462 8.70458 -5.4591
-5.46049 8.70395 -5.4605
-1.8633 8.70396 -5.46123
1.86328 8.70397 -5.46121
5.46048 8.70393 -5.46053
8.70453 8.70459 -5.45904
11.0347 8.70822 -5.45829
12.1455 8.7327 -5.46412
-12.1304 11.1283 -5.46173
-11.0454 11.0454 -5.4573
-8.70829 11.0347 -5.45826
-5.45981 11.0335 -5.45986
-1.86263 11.0343 -5.46056
1.86261 11.0343 -5.46057
5.45977 11.0335 -5.45983
8.70826 11.0347 -5.45831
11.0454 11.0454 -5.45729
12.1304 11.1283 -5.46173
-12.2485 12.2485 -5.46105
-11.1283 12.1304 -5.46173
-8.73269 12.1455 -5.46413
-5.46634 12.1662 -5.46636
-1.86392 12.1763 -5.46744
1.86394 12.1763 -5.46743
5.46634 12.1662 -5.46637
8.73269 12.1455 -5.46411
11.1283 12.1304 -5.46173
12.2485 12.2485 -5.46104
-12.2584 -12.2584 -1.86118
-11.1297 -12.1411 -1.86182
-8.7334 -12.1559 -1.86289
-5.46741 -12.1763 -1.86397
-1.86445 -12.1863 -1.86446
1.86448 -12.1863 -1.86444
5.46737 -12.1763 -1.864
8.73339 -12.1559 -1.8629
11.1297 -12.1411 -1.86185
12.2584 -12.2584 -1.86118
-12.1411 -11.1297 -1.86186
-11.0464 -11.0464 -1.86109
-8.7084 -11.0357 -1.86174
-5.46056 -11.0343 -1.86266
-1.86309 -11.0349 -1.86309
1.86312 -11.0349 -1.86309
5.4606 -11.0343 -1.86268
8.70843 -11.0357 -1.86178
11.0464 -11.0464 -1.86108
12.1412 -11.1297 -1.86184
-12.1559 -8.73341 -1.86289
-11.0356 -8.70841 -1.86178
-8.70462 -8.70465 -1.86248
-5.46121 -8.70394 -1.86323
-1.8637 -8.70391 -1.86373
1.86369 -8.70393 -1.86372
5.46121 -8.70392 -1.86323
8.70458 -8.70465 -1.8625
11.0356 -8.7084 -1.86177
12.1559 -8.73341 -1.86287
-12.1763 -5.46743 -1.86397
-11.0343 -5.46057 -1.86263
-8.70394 -5.46123 -1.86327
-5.46267 -5.46264 -1.86413
-1.86456 -5.46337 -1.86455
1.86453 -5.46339 -1.86454
5.46264 -5.46265 -1.86416
8.70396 -5.46124 -1.86322
11.0343 -5.46055 -1.86264
12.1764 -5.46741 -1.86397
-12.1863 -1.86442 -1.86444
-11.0349 -1.86308 -1.86312
-8.70391 -1.86372 -1.86371
-5.46336 -1.86455 -1.86458
-1.86497 -1.86497 -1.86501
1.86498 -1.865 -1.86503
5.46334 -1.86454 -1.86451
8.70387 -1.86372 -1.86374
11.0349 -1.86308 -1.86311
12.1863 -1.86445 -1.86444
-12.1863 1.86442 -1.86444
-11.0349 1.86311 -1.86308
-8.7039 1.86369 -1.86371
-5.46335 1.86455 -1.86455
-1.86496 1.86498 -1.86491
1.86497 1.86494 -1.86491
5.46335 1.86455 -1.86456
8.70385 1.86368 -1.86371
11.0349 1.86312 -1.86309
12.1863 1.86445 -1.86445
-12.1763 5.46741 -1.86397
-11.0343 5.46059 -1.86269
-8.70393 5.46117 -1.86326
-5.46268 5.46265 -1.86413
-1.86455 5.4633 -1.8646
1.86453 5.4633 -1.86459
5.46262 5.46266 -1.86411
8.70397 5.46117 -1.86329
11.0343 5.46058 -1.86272
12.1763 5.46738 -1.864
-12.1559 8.73333 -1.86294
-11.0356 8.70839 -1.86179
-8.70462 8.70459 -1.8625
-5.46121 8.70397 -1.86328
-1.86368 8.70388 -1.86371
1.86369 8.70387 -1.86369
5.46122 8.70397 -1.86335
8.70458 8.70457 -1.86248
11.0357 8.70842 -1.86178
12.1559 8.73334 -1.86295
-12.1411 11.1297 -1.86184
-11.0464 11.0464 -1.86114
-8.7084 11.0356 -1.8618
-5.46056 11.0343 -1.8627
-1.86308 11.0349 -1.86314
1.86312 11.0349 -1.86312
5.46058 11.0343 -1.86269
8.70841 11.0356 -1.8618
11.0464 11.0464 -1.86113
12.1411 11.1297 -1.86184
-12.2584 12.2584 -1.8612
-11.1297 12.1411 -1.86184
-8.73339 12.1559 -1.86298
-5.4674 12.1764 -1.86399
-1.86446 12.1863 -1.86447
1.86446 12.1862 -1.86446
5.46739 12.1764 -1.86399
8.73338 12.1559 -1.86294
11.1297 12.1411 -1.86184
12.2584 12.2584 -1.86121
-12.2584 -12.2584 1.86111
-11.1297 -12.1411 1.86176
-8.73339 -12.1559 1.86287
-5.46741 -12.1763 1.86393
-1.86445 -12.1863 1.86444
1.86446 -12.1863 1.86445
5.46737 -12.1764 1.86392
8.73337 -12.1559 1.86289
11.1297 -12.1411 1.86178
12.2584 -12.2584 1.86112
-12.1411 -11.1297 1.86181
-11.0464 -11.0464 1.86107
-8.70842 -11.0356 1.86177
-5.46056 -11.0343 1.86258
-1.8631 -11.0349 1.86307
1.86312 -11.0349 1.86307
5.4606 -11.0343 1.8626
8.70843 -11.0356 1.86182
11.0464 -11.0464 1.86108
12.1411 -11.1297 1.86176
-12.1559 -8.7334 1.86287
-11.0357 -8.70841 1.8618
-8.70463 -8.70464 1.86235
-5.46123 -8.70393 1.8633
-1.86369 -8.70391 1.86368
1.86372 -8.70384 1.86368
5.4612 -8.70394 1.86332
8.70461 -8.70461 1.86235
11.0357 -8.70842 1.86178
12.1559 -8.73341 1.86285
-12.1763 -5.46741 1.86388
-11.0343 -5.46056 1.86258
-8.70392 -5.4612 1.86328
-5.46266 -5.46265 1.86401
-1.86456 -5.46335 1.86457
1.86455 -5.46331 1.86457
5.46261 -5.46269 1.86404
8.70396 -5.46119 1.86329
11.0342 -5.46057 1.86257
12.1763 -5.46741 1.86391
-12.1863 -1.86442 1.86443
-11.0349 -1.86309 1.86306
-8.7039 -1.8637 1.86366
-5.46335 -1.86457 1.86453
-1.86497 -1.86498 1.86496
1.86498 -1.86488 1.8649
5.46335 -1.86459 1.86455
8.70389 -1.8637 1.86364
11.0349 -1.8631 1.86305
12.1863 -1.86443 1.86443
-12.1863 1.86445 1.86445
-11.0349 1.86311 1.86308
-8.70389 1.86373 1.86366
-5.46333 1.86452 1.86457
-1.86497 1.86498 1.86501
1.865 1.86503 1.86504
5.46337 1.86449 1.86452
8.70393 1.86376 1.86372
11.0349 1.8631 1.86308
12.1863 1.86447 1.86445
-12.1763 5.46742 1.86388
-11.0343 5.46059 1.86257
-8.70393 5.46122 1.8633
-5.46267 5.46262 1.86408
-1.86456 5.46334 1.86451
1.86454 5.46341 1.86451
5.46262 5.46258 1.86415
8.70394 5.46125 1.86325
11.0343 5.46059 1.86257
12.1763 5.46741 1.86391
-12.1559 8.73336 1.86281
-11.0356 8.7084 1.86176
-8.70463 8.70461 1.86235
-5.46123 8.70396 1.86325
-1.86369 8.70385 1.86368
1.86372 8.70398 1.8637
5.46118 8.70387 1.8632
8.70457 8.70468 1.8624
11.0357 8.70839 1.8618
12.1559 8.73336 1.86282
-12.1411 11.1297 1.86175
-11.0464 11.0464 1.86104
-8.70842 11.0356 1.86177
-5.46056 11.0343 1.86256
-1.8631 11.0349 1.86307
1.86311 11.035 1.86307
5.46058 11.0342 1.8626
8.7084 11.0357 1.86172
11.0464 11.0464 1.861
12.1411 11.1297 1.86174
-12.2584 12.2584 1.8611
-11.1297 12.1411 1.86177
-8.7334 12.1559 1.86283
-5.46739 12.1763 1.86392
-1.86446 12.1863 1.86445
1.86446 12.1864 1.86444
5.46738 12.1762 1.8639
8.73337 12.156 1.86281
11.1297 12.1411 1.86174
12.2584 12.2584 1.86112
-12.2485 -12.2485 5.46096
-11.1283 -12.1304 5.46167
-8.73269 -12.1455 5.46405
-5.46634 -12.1662 5.46628
-1.86392 -12.1763 5.46739
1.86395 -12.1763 5.46739
5.46636 -12.1662 5.46628
8.73268 -12.1455 5.46408
11.1283 -12.1304 5.46166
12.2485 -12.2485 5.46097
-12.1304 -11.1283 5.46168
-11.0454 -11.0454 5.45719
-8.70828 -11.0347 5.45827
-5.45979 -11.0335 5.45974
-1.86264 -11.0343 5.46053
1.86261 -11.0343 5.46052
5.45977 -11.0335 5.45973
8.70826 -11.0347 5.45828
11.0453 -11.0454 5.45719
12.1304 -11.1283 5.46168
-12.1455 -8.7327 5.46408
-11.0347 -8.7083 5.45825
-8.70459 -8.7046 5.45896
-5.46046 -8.7039 5.46054
-1.86329 -8.70391 5.46117
1.86326 -8.70395 5.46116
5.46049 -8.70389 5.46052
8.70459 -8.70461 5.45892
11.0347 -8.7083 5.45828
12.1455 -8.73269 5.46408
-12.1662 -5.46636 5.46627
-11.0335 -5.45981 5.4598
-8.70389 -5.46047 5.46052
-5.46186 -5.46187 5.46178
-1.86411 -5.46265 5.46268
1.86415 -5.46267 5.46268
5.46194 -5.46186 5.46184
8.70394 -5.46046 5.46054
11.0335 -5.4598 5.45975
12.1662 -5.46635 5.46629
-12.1763 -1.86393 5.46738
-11.0343 -1.86263 5.46048
-8.70392 -1.86328 5.46116
-5.46266 -1.86408 5.46268
-1.86455 -1.86456 5.46331
1.86454 -1.86459 5.46328
5.46265 -1.86408 5.46268
8.70395 -1.86328 5.46113
11.0342 -1.86263 5.46051
12.1763 -1.86395 5.46738
-12.1763 1.86393 5.46738
-11.0343 1.86259 5.46051
-8.70392 1.86326 5.46115
-5.46267 1.86412 5.46263
-1.86456 1.86454 5.46338
1.86452 1.8645 5.46339
5.4626 1.86414 5.4626
8.70392 1.86326 5.46114
11.0342 1.8626 5.46057
12.1763 1.86391 5.46738
-12.1661 5.46633 5.46632
-11.0335 5.45977 5.45973
-8.70387 5.46045 5.46052
-5.46185 5.46193 5.46188
-1.86409 5.46266 5.46258
1.86417 5.4626 5.46265
5.46193 5.46198 5.4619
8.70397 5.46045 5.46051
11.0335 5.45979 5.45971
12.1662 5.46639 5.4663
-12.1455 8.73268 5.46407
-11.0348 8.70822 5.45825
-8.7046 8.70456 5.45893
-5.46047 8.70393 5.46049
-1.86329 8.70395 5.46114
1.86325 8.70391 5.46117
5.4605 8.70396 5.46043
8.70458 8.70453 5.45896
11.0348 8.70824 5.45825
12.1455 8.73273 5.46407
-12.1304 11.1283 5.46171
-11.0454 11.0454 5.45717
-8.70828 11.0347 5.45826
-5.4598 11.0335 5.45973
-1.86263 11.0343 5.46052
1.86264 11.0342 5.46051
5.45981 11.0335 5.45975
8.70824 11.0347 5.45825
11.0454 11.0454 5.45722
12.1304 11.1283 5.46171
-12.2485 12.2485 5.46097
-11.1283 12.1304 5.4617
-8.73269 12.1455 5.46405
-5.46634 12.1662 5.46628
-1.86393 12.1763 5.46736
1.86396 12.1763 5.46736
5.46638 12.1662 5.46629
8.73274 12.1455 5.46406
11.1283 12.1304 5.4617
12.2485 12.2485 5.46096
-12.2275 -12.2275 8.73869
-11.127 -12.1081 8.73113
-8.73147 -12.1241 8.73139
-5.4641 -12.1455 8.73263