# vtk DataFile Version 3.0 
Lennard-Jones particle simulation 
ASCII 
DATASET UNSTRUCTURED_GRID 
POINTS 1000 float 
-9.00685 -9.00684 -9.00686
-7.00573 -8.94651 -8.94651
-4.19493 -8.95797 -8.95798
-0.864384 -8.97058 -8.97059
2.6854 -8.97651 -8.97651
6.31462 -8.97651 -8.97651
9.86442 -8.97058 -8.97059
13.1949 -8.95797 -8.95797
16.0057 -8.94651 -8.94652
18.0069 -9.00685 -9.00686
-8.94651 -7.00573 -8.94651
-6.97903 -6.97903 -8.86868
-4.19033 -6.97647 -8.87843
-0.864699 -6.97741 -8.89146
2.685 -6.97839 -8.89773
6.31497 -6.97839 -8.89773
9.8647 -6.97741 -8.89146
13.1903 -6.97647 -8.87842
15.979 -6.97902 -8.86868
17.9465 -7.00574 -8.94651
-8.95797 -4.19494 -8.95797
-6.97647 -4.19032 -8.87843
-4.19114 -4.19114 -8.88682
-0.86669 -4.19263 -8.89911
2.68419 -4.19342 -8.90522
6.31584 -4.19342 -8.90522
9.8667 -4.19263 -8.89911
13.1911 -4.19114 -8.88683
15.9765 -4.19031 -8.87844
17.958 -4.19492 -8.95798
-8.97058 -0.864386 -8.97059
-6.97742 -0.864706 -8.89146
-4.19264 -0.866675 -8.89914
-0.868565 -0.868564 -8.91093
2.68336 -0.869453 -8.91685
6.31664 -0.869454 -8.91685
9.86857 -0.868564 -8.91097
13.1926 -0.866686 -8.89911
15.9774 -0.864691 -8.89145
17.9706 -0.864394 -8.97058
-8.97651 2.68542 -8.97651
-6.9784 2.68501 -8.89774
-4.19343 2.68419 -8.90521
-0.869465 2.68336 -8.91688
2.68296 2.68297 -8.92263
6.31704 2.68297 -8.92264
9.86944 2.68336 -8.91683
13.1934 2.68419 -8.90524
15.9784 2.685 -8.89774
17.9765 2.68541 -8.97651
-8.9765 6.31458 -8.9765
-6.97839 6.315 -8.89772
-4.19342 6.31583 -8.90522
-0.869457 6.31664 -8.9168
2.68298 6.31702 -8.9226
6.31704 6.31703 -8.92259
9.86947 6.31664 -8.91685
13.1934 6.31583 -8.90521
15.9784 6.315 -8.89773
17.9765 6.3146 -8.9765
-8.97059 9.86442 -8.9706
-6.97742 9.86471 -8.89148
-4.19265 9.86673 -8.89913
-0.868571 9.86854 -8.91096
2.68335 9.86945 -8.91686
6.31662 9.86944 -8.91686
9.86855 9.86855 -8.91094
13.1926 9.86669 -8.89915
15.9774 9.86469 -8.89147
17.9706 9.8644 -8.97059
-8.95797 13.1949 -8.95798
-6.97647 13.1903 -8.87843
-4.19114 13.1911 -8.88683
-0.86669 13.1926 -8.89914
2.68419 13.1934 -8.90521
6.31584 13.1934 -8.90521
9.8667 13.1926 -8.89916
13.1911 13.1911 -8.88681
15.9765 13.1903 -8.87843
17.958 13.1949 -8.95798
-8.94651 16.0057 -8.94652
-6.97903 15.979 -8.8687
-4.19033 15.9765 -8.87843
-0.864702 15.9774 -8.89147
2.68502 15.9784 -8.89775
6.31497 15.9784 -8.89774
9.86471 15.9774 -8.89146
13.1903 15.9765 -8.87845
15.979 15.979 -8.86869
17.9465 16.0057 -8.94652
-9.00685 18.0069 -9.00686
-7.00574 17.9465 -8.94652
-4.19493 17.958 -8.95799
-0.864392 17.9706 -8.97059
2.6854 17.9765 -8.97651
6.31461 17.9765 -8.97651
9.8644 17.9706 -8.97059
13.1949 17.958 -8.95798
16.0057 17.9465 -8.94652
18.0069 18.0069 -9.00686
-8.94651 -8.94651 -7.00575
-6.97903 -8.86868 -6.97902
-4.19033 -8.87843 -6.97648
-0.864697 -8.89145 -6.97742
2.685 -8.89774 -6.9784
6.31496 -8.89774 -6.97839
9.86472 -8.89146 -6.97742
13.1903 -8.87843 -6.97648
15.979 -8.86869 -6.97904
17.9465 -8.94651 -7.00574
-8.86868 -6.97903 -6.97903
-6.93535 -6.93535 -6.93535
-4.17821 -6.92897 -6.92896
-0.861643 -6.92866 -6.92866
2.68555 -6.92931 -6.9293
6.31446 -6.9293 -6.9293
9.86162 -6.92866 -6.92866
13.1782 -6.92897 -6.92896
15.9354 -6.93535 -6.93535
17.8687 -6.97903 -6.97903
-8.87844 -4.19032 -6.97648
-6.92898 -4.17821 -6.92896
-4.1769 -4.17689 -6.92197
-0.862669 -4.17738 -6.92138
2.68497 -4.17781 -6.92201
6.31502 -4.1778 -6.922
9.86268 -4.17738 -6.92138
13.1769 -4.17688 -6.92198
15.929 -4.17822 -6.92897
17.8784 -4.19033 -6.97648
-8.89144 -0.864701 -6.97742
-6.92864 -0.861624 -6.92866
-4.17739 -0.862666 -6.9214
-0.864114 -0.864111 -6.92065
2.6843 -0.864814 -6.9212
6.31571 -0.864813 -6.9212
9.86413 -0.864113 -6.92069
13.1774 -0.862661 -6.92137
15.9287 -0.861634 -6.92865
17.8915 -0.864703 -6.97741
-8.89773 2.68501 -6.9784
-6.9293 2.68555 -6.92931
-4.1778 2.68498 -6.922
-0.864816 2.68427 -6.92122
2.68394 2.68393 -6.92165
6.31608 2.68395 -6.92166
9.86485 2.68426 -6.92118
13.1778 2.68499 -6.92203
15.9293 2.68556 -6.92931
17.8977 2.68501 -6.97839
-8.89776 6.31499 -6.97838
-6.92933 6.31445 -6.92929
-4.17783 6.31502 -6.92201
-0.864824 6.31573 -6.92116
2.68392 6.31609 -6.92163
6.31608 6.31608 -6.92162
9.86484 6.31572 -6.9212
13.1778 6.315 -6.92199
15.9293 6.31443 -6.9293
17.8977 6.31499 -6.97839
-8.89145 9.86471 -6.97744
-6.92865 9.86165 -6.92868
-4.17739 9.86265 -6.92139
-0.864117 9.86411 -6.92068
2.6843 9.86484 -6.92122
6.31571 9.86485 -6.92122
9.86413 9.86411 -6.92065
13.1774 9.86268 -6.92141
15.9287 9.86164 -6.92867
17.8915 9.86472 -6.97743
-8.87844 13.1903 -6.97649
-6.92898 13.1782 -6.92897
-4.17689 13.1769 -6.92198
-0.862666 13.1774 -6.92141
2.68497 13.1778 -6.922
6.31501 13.1778 -6.922
9.86266 13.1774 -6.92142
13.1769 13.1769 -6.92196
15.929 13.1782 -6.92898
17.8784 13.1903 -6.97648
-8.86869 15.979 -6.97904
-6.93536 15.9354 -6.93537
-4.17822 15.929 -6.92897
-0.861649 15.9287 -6.92868
2.68555 15.9293 -6.92931
6.31446 15.9293 -6.92931
9.86162 15.9287 -6.92866
13.1782 15.929 -6.92898
15.9354 15.9354 -6.93536
17.8687 15.979 -6.97904
-8.94652 17.9465 -7.00574
-6.97904 17.8687 -6.97904
-4.19033 17.8784 -6.97649
-0.864704 17.8915 -6.97743
2.685 17.8977 -6.9784
6.31496 17.8977 -6.9784
9.86472 17.8915 -6.97743
13.1903 17.8784 -6.97649
15.979 17.8687 -6.97904
17.9465 17.9465 -7.00575
-8.95799 -8.95798 -4.19495
-6.97648 -8.87845 -4.19033
-4.19115 -8.88681 -4.19113
-0.8667 -8.89915 -4.19265
2.68418 -8.90522 -4.19342
6.31584 -8.90522 -4.19342
9.86671 -8.89913 -4.19264
13.1911 -8.88683 -4.19113
15.9765 -8.87844 -4.19033
17.958 -8.95799 -4.19494
-8.87845 -6.97648 -4.19033
-6.92898 -6.92899 -4.17821
-4.1769 -6.92196 -4.17689
-0.862675 -6.92141 -4.1774
2.68497 -6.92201 -4.1778
6.31502 -6.92201 -4.1778
9.86268 -6.92139 -4.17739
13.1769 -6.92198 -4.17689
15.929 -6.92898 -4.17822
17.8785 -6.97648 -4.19033
-8.88681 -4.19115 -4.19114
-6.92196 -4.1769 -4.17689
-4.17523 -4.17522 -4.17524
-0.863557 -4.17559 -4.17556
2.68445 -4.17597 -4.17597
6.31554 -4.17597 -4.17597
9.86355 -4.17558 -4.17555
13.1752 -4.17525 -4.17526
15.922 -4.17689 -4.1769
17.8868 -4.19115 -4.19114
-8.89915 -0.866697 -4.19264
-6.92142 -0.862675 -4.17738
-4.1756 -0.863558 -4.17557
-0.864932 -0.864919 -4.17588
2.68377 -0.865623 -4.17625
6.31622 -0.865631 -4.17624
9.86493 -0.864902 -4.17592
13.1755 -0.863585 -4.17555
15.9214 -0.862674 -4.17739
17.8991 -0.866697 -4.19263
-8.90523 2.68417 -4.19344
-6.92202 2.68498 -4.17781
-4.17597 2.68442 -4.17597
-0.865637 2.68377 -4.17628
2.68341 2.68343 -4.17659
6.31656 2.68341 -4.17661
9.8656 2.68377 -4.17624
13.1759 2.68441 -4.17598
15.922 2.68497 -4.17782
17.9052 2.68418 -4.19343
-8.90524 6.31583 -4.19342
-6.92203 6.315 -4.1778
-4.17597 6.31555 -4.17598
-0.86562 6.31621 -4.17622
2.68343 6.31658 -4.17655
6.31658 6.31657 -4.17654
9.86564 6.31624 -4.17626
13.176 6.31552 -4.17597
15.922 6.31502 -4.1778
17.9052 6.31581 -4.19343
-8.89911 9.86668 -4.19266
-6.92138 9.86267 -4.1774
-4.17557 9.86354 -4.17557
-0.864923 9.86491 -4.1759
2.68375 9.86562 -4.17626
6.31622 9.86561 -4.17627
9.86491 9.86493 -4.17587
13.1755 9.86354 -4.17559
15.9214 9.86266 -4.1774
17.8991 9.86668 -4.19266
-8.88679 13.1911 -4.19116
-6.92194 13.1769 -4.17689
-4.17521 13.1752 -4.17524
-0.86353 13.1756 -4.17559
2.68445 13.1759 -4.17597
6.31555 13.1759 -4.17595
9.86356 13.1756 -4.1756
13.1752 13.1752 -4.17522
15.922 13.1769 -4.1769
17.8868 13.1911 -4.19115
-8.87842 15.9765 -4.19034
-6.92896 15.929 -4.17823
-4.17688 15.922 -4.17689
-0.862653 15.9214 -4.1774
2.68498 15.922 -4.17781
6.315 15.922 -4.17782
9.86268 15.9214 -4.17739
13.1769 15.9219 -4.17691
15.929 15.929 -4.17823
17.8784 15.9765 -4.19034
-8.95796 17.958 -4.19495
-6.97646 17.8784 -4.19034
-4.19113 17.8868 -4.19116
-0.866678 17.8991 -4.19265
2.68419 17.9052 -4.19343
6.31584 17.9052 -4.19343
9.8667 17.8991 -4.19265
13.1911 17.8868 -4.19116
15.9765 17.8784 -4.19034
17.958 17.958 -4.19496
-8.97056 -8.97055 -0.864416
-6.97739 -8.89143 -0.864707
-4.19261 -8.89912 -0.86669
-0.868552 -8.91092 -0.868579
2.68338 -8.91685 -0.869459
6.31663 -8.91684 -0.86946
9.86855 -8.91093 -0.868587
13.1926 -8.89911 -0.866684
15.9774 -8.89144 -0.864714
17.9706 -8.97056 -0.864416
-8.89143 -6.97739 -0.864713
-6.92863 -6.92863 -0.861641
-4.17736 -6.92138 -0.862704
-0.864106 -6.92065 -0.864141
2.6843 -6.9212 -0.864815
6.3157 -6.9212 -0.864819
9.86408 -6.92066 -0.864136
13.1774 -6.92137 -0.862664
15.9286 -6.92864 -0.861644
17.8914 -6.97739 -0.864697
-8.89912 -4.19261 -0.866686
-6.92139 -4.17736 -0.862668
-4.17558 -4.17557 -0.863576
-0.86492 -4.17586 -0.864893
2.68377 -4.17625 -0.865622
6.31623 -4.17624 -0.865625
9.86492 -4.17587 -0.864885
13.1756 -4.17555 -0.86359
15.9214 -4.17738 -0.862679
17.8991 -4.19262 -0.866706
-8.91092 -0.868552 -0.868583
-6.92064 -0.864108 -0.864119
-4.17586 -0.864906 -0.864917
-0.866251 -0.866249 -0.866268
2.68314 -0.866982 -0.86696
6.31692 -0.866969 -0.866957
9.86631 -0.866268 -0.8663
13.1759 -0.864886 -0.864879
15.9207 -0.864118 -0.864136
17.9109 -0.868556 -0.868573
-8.91684 2.68337 -0.869474
-6.9212 2.68429 -0.864835
-4.17625 2.68377 -0.865635
-0.866978 2.68312 -0.866986
2.68275 2.68274 -0.867652
6.31724 2.68275 -0.867673
9.86696 2.68312 -0.866949
13.1763 2.68378 -0.86565
15.9212 2.68429 -0.864826
17.9169 2.68339 -0.869471
-8.91684 6.31665 -0.86945
-6.9212 6.31569 -0.864813
-4.17625 6.31623 -0.865624
-0.866978 6.3169 -0.866943
2.68273 6.31725 -0.867621
6.31723 6.31723 -0.867611
9.86695 6.3169 -0.866988
13.1762 6.31623 -0.865619
15.9212 6.31569 -0.864816
17.9169 6.31662 -0.869463
-8.91093 9.86855 -0.868577
-6.92065 9.86408 -0.864156
-4.17587 9.86493 -0.864906
-0.86624 9.8663 -0.866279
2.68311 9.86695 -0.867003
6.31695 9.86697 -0.866999
9.86632 9.86628 -0.866253
13.1759 9.86494 -0.864916
15.9207 9.86411 -0.86415
17.911 9.86856 -0.868584
-8.89914 13.1926 -0.866692
-6.9214 13.1774 -0.862675
-4.17559 13.1756 -0.863603
-0.864929 13.1759 -0.864937
2.68375 13.1763 -0.865624
6.31623 13.1763 -0.865609
9.86492 13.1759 -0.864957
13.1755 13.1756 -0.863568
15.9214 13.1773 -0.862695
17.8991 13.1926 -0.866698
-8.89144 15.9774 -0.864715
[...]
POINT_DATA 1000
SCALARS mass float 
LOOKUP_TABLE default 
1
1
1
1
1
1
1
1
1
1
1
1
1
1
1
1
1
1
1
1
1
1
1
1
1
1
1
1
1
1
1
1
1
1
1
1
1
1
1
1
1
1
1
1
1
1
1
1
1
1
1
1
1
1
1
1
1
1
1
1
1
1
1
1
1
1
1
1
1
1
1
1
1
1
1
1
1
1
1
1
1
1
1
1
1
1
1
1
1
1
1
1
1
1
1
1
1
1
1
1
1
1
1
1
1
1
1
1
1
1
1
1
1
1
1
1
1
1
1
1
1
1
1
1
1
1
1
1
1
1
1
1
1
1
1
1
1
1
1
1
1
1
1
1
1
1
1
1
1
1
1
1
1
1
1
1
1
1
1
1
1
1
1
1
1
1
1
1
1
1
1
1
1
1
1
1
1
1
1
1
1
1
1
1
1
1
1
1
1
1
1
1
1
1
1
1
1
1
1
1
1
1
1
1
1
1
1
1
1
1
1
1
1
1
1
1
1
1
1
1
1
1
1
1
1
1
1
1
1
1
1
1
1
1
1
1
1
1
1
1
1
1
1
1
1
1
1
1
1
1
1
1
1
1
1
1
1
1
1
1
1
1
1
1
1
1
1
1
1
1
1
1
1
1
1
1
1
1
1
1
1
1
1
1
1
1
1
1
1
1
1
1
1
1
1
1
1
1
1
1
1
1
1
1
1
1
1
1
1
1
1
1
1
1
1
1
1
1
1
1
1
1
1
1
1
1
1
1
1
1
1
1
1
1
1
1
1
1
1
1
1
1
1
1
1
1
1
1
1
1
1
1
1
1
1
1
1
1
1
1
1
1
1
1
1
1
1
1
1
1
1
1
1
1
1
1
1
1
1
1
1
1
1
1
1
1
1
1
1
1
1
1
1
1
1
1
1
1
1
1
1
1
1
1
1
1
1
1
1
1
1
1
1
1
1
1
1
1
1
1
1
1
1
1
1
1
1
1
1
1
1
1
1
1
1
1
1
1
1
1
1
1
1
1
1
1
1
1
1
1
1
1
1
1
1
1
1
1
1
1
1
1
1
1
1
1
1
1
1
1
1
1
1
1
1
1
1
1
1
1
1
1
1
1
1
1
1
1
1
1
1
1
1
1
1
1
1
1
1
1
1
1
1
1
1
1
1
1
1
1
1
1
1
1
1
1
1
1
1
1
1
1
1
1
1
1
1
1
1
1
1
1
1
1
1
1
1
1
1
1
1
1
1
1
1
1
1
1
1
1
1
1
1
1
1
1
1
1
1
1
1
1
1
1
1
1
1
1
1
1
1
1
1
1
1
1
1
1
1
1
1
1
1
1
1
1
1
1
1
1
1
1
1
1
1
1
1
1
1
1
1
1
1
1
1
1
1
1
1
1
1
1
1
1
1
1
1
1
1
1
1
1
1
1
1
1
1
1
1
1
1
1
1
1
1
1
1
1
1
1
1
1
1
1
1
1
1
1
1
1
1
1
1
1
1
1
1
1
1
1
1
1
1
1
1
1
1
1
1
1
1
1
1
1
1
1
1
1
1
1
1
1
1
1
1
1
1
1
1
1
1
1
1
1
1
1
1
1
1
1
1
1
1
1
1
1
1
1
1
1
1
1
1
1
1
1
1
1
1
1
1
1
1
1
1
1
1
1
1
1
1
1
1
1
1
1
1
1
1
1
1
1
1
1
1
1
1
1
1
1
1
1
1
1
1
1
1
1
1
1
1
1
1
1
1
1
1
1
1
1
1
1
1
1
1
1
1
1
1
1
1
1
1
1
1
1
1
1
1
1
1
1
1
1
1
1
1
1
1
1
1
1
1
1
1
1
1
1
1
1
1
1
1
1
1
1
1
1
1
1
1
1
1
1
1
1
1
1
1
1
1
1
1
1
1
1
1
1
1
1
1
1
1
1
1
1
1
1
1
1
1
1
1
1
1
1
1
1
1
1
1
1
1
1
1
1
1
1
1
1
1
1
1
1
1
1
1
1
1
1
1
1
1
1
1
1
1
1
1
1
1
1
1
1
1
1
1
1
1
1
1
1
1
1
1
1
1
1
1
1
1
1
1
1
1
1
1
1
1
1
1
1
1
1
1
1
1
1
1
1
1
1
1
1
1
1
1
1
1
1
1
1
1
1
1
1
1
1
1
1
1
1
1
1
1
1
1
1
1
1
1
1
1
1
1
1
1
1
1
1
1
1
1
1
1
1
1
1
1
1
1
1
1
1
1
1
1
1
1
1
1
1
1
1
1
1
1
1
1
1
VECTORS velocity float 
-12.0867 -12.0867 -12.0867
-11.3195 -11.9787 -11.9788
-8.77591 -12.0139 -12.0139
-5.46968 -12.0434 -12.0435
-1.86347 -12.0561 -12.0561
1.86349 -12.0561 -12.0561
5.46973 -12.0434 -12.0435
8.77591 -12.0139 -12.0139
11.3195 -11.9787 -11.9788
12.0867 -12.0867 -12.0867
-11.9788 -11.3195 -11.9788
-11.2829 -11.2828 -11.8472
-8.77283 -11.2671 -11.8823
-5.47122 -11.2634 -11.9143
-1.86432 -11.2631 -11.9281
1.86427 -11.2631 -11.9281
5.47122 -11.2634 -11.9143
8.77282 -11.2671 -11.8823
11.2828 -11.2828 -11.8472
11.9787 -11.3195 -11.9788
-12.0139 -8.77592 -12.0139
-11.2671 -8.77282 -11.8823
-8.76936 -8.76935 -11.9136
-5.4726 -8.76922 -11.9437
-1.86508 -8.7695 -11.957
1.86512 -8.7695 -11.957
5.47262 -8.76922 -11.9437
8.76935 -8.76935 -11.9136
11.2671 -8.77281 -11.8823
12.0139 -8.7759 -12.0139
-12.0435 -5.46968 -12.0435
-11.2634 -5.47123 -11.9143
-8.76923 -5.47258 -11.9437
-5.47447 -5.47447 -11.9725
-1.86606 -5.47541 -11.9853
1.86606 -5.47541 -11.9853
5.47448 -5.47447 -11.9725
8.76922 -5.4726 -11.9437
11.2635 -5.47121 -11.9143
12.0435 -5.4697 -12.0434
-12.0561 -1.86344 -12.0561
-11.2631 -1.8643 -11.9282
-8.76952 -1.86508 -11.9569
-5.47543 -1.86605 -11.9854
-1.86653 -1.86653 -11.9979
1.86654 -1.86653 -11.998
5.47537 -1.86605 -11.9853
8.76947 -1.86508 -11.957
11.2631 -1.86431 -11.9282
12.0561 -1.86346 -12.0561
-12.0561 1.86344 -12.0561
-11.2631 1.86431 -11.9281
-8.76952 1.86511 -11.957
-5.47542 1.86605 -11.9853
-1.8665 1.86651 -11.9979
1.86653 1.86652 -11.9979
5.47543 1.86605 -11.9853
8.76954 1.86511 -11.9569
11.2632 1.86431 -11.9281
12.0562 1.86346 -12.0561
-12.0435 5.46975 -12.0435
-11.2634 5.47124 -11.9143
-8.76925 5.47267 -11.9437
-5.47448 5.47444 -11.9725
-1.86606 5.4754 -11.9854
1.86602 5.47539 -11.9854
5.47444 5.47445 -11.9725
8.76923 5.47259 -11.9437
11.2634 5.4712 -11.9143
12.0434 5.46971 -12.0435
-12.0139 8.7759 -12.0139
-11.2671 8.7728 -11.8823
-8.76936 8.76936 -11.9136
-5.4726 8.76924 -11.9437
-1.86507 8.76952 -11.9569
1.86512 8.76952 -11.9569
5.47262 8.76924 -11.9437
8.76935 8.76936 -11.9136
11.2671 8.77284 -11.8823
12.0139 8.77592 -12.0139
-11.9787 11.3195 -11.9788
-11.2829 11.2828 -11.8472
-8.77283 11.2671 -11.8823
-5.47122 11.2634 -11.9143
-1.86429 11.2631 -11.9282
1.86428 11.2631 -11.9282
5.47124 11.2635 -11.9143
8.77281 11.2671 -11.8823
11.2828 11.2829 -11.8472
11.9788 11.3195 -11.9788
-12.0867 12.0867 -12.0867
-11.3195 11.9788 -11.9788
-8.77592 12.0139 -12.0139
-5.4697 12.0434 -12.0435
-1.86346 12.0561 -12.0561
1.86348 12.0561 -12.0561
5.46971 12.0434 -12.0435
8.77592 12.0139 -12.0139
11.3195 11.9787 -11.9788
12.0867 12.0867 -12.0867
-11.9787 -11.9788 -11.3195
-11.2829 -11.8472 -11.2828
-8.77283 -11.8823 -11.2671
-5.47121 -11.9143 -11.2634
-1.86431 -11.9281 -11.2631
1.86426 -11.9281 -11.2631
5.47125 -11.9143 -11.2634
8.7728 -11.8823 -11.2671
11.2828 -11.8472 -11.2829
11.9787 -11.9787 -11.3195
-11.8472 -11.2828 -11.2828
-11.2191 -11.2191 -11.2191
-8.76031 -11.1959 -11.1959
-5.46866 -11.1899 -11.1899
-1.86402 -11.189 -11.189
1.86404 -11.189 -11.189
5.46861 -11.1899 -11.1899
8.76036 -11.1959 -11.1959
11.2192 -11.2191 -11.2191
11.8472 -11.2828 -11.2829
-11.8823 -8.77282 -11.2671
-11.1959 -8.76031 -11.1959
-8.75301 -8.753 -11.1727
-5.4684 -8.75106 -11.1669
-1.8644 -8.75072 -11.1661
1.86438 -8.75071 -11.1661
5.46841 -8.75107 -11.1669
8.75301 -8.75299 -11.1727
11.1959 -8.76032 -11.1959
11.8823 -8.77283 -11.2671
-11.9143 -5.47122 -11.2634
-11.1899 -5.46863 -11.1899
-8.75108 -5.46839 -11.1669
-5.46953 -5.46953 -11.161
-1.86511 -5.47016 -11.1602
1.86512 -5.47016 -11.1602
5.46955 -5.46953 -11.161
8.75109 -5.46839 -11.1669
11.1899 -5.46864 -11.1899
11.9143 -5.47122 -11.2634
-11.9281 -1.8643 -11.2631
-11.189 -1.86402 -11.189
-8.75071 -1.86439 -11.1661
-5.47016 -1.86515 -11.1602
-1.86554 -1.86555 -11.1592
1.86556 -1.86552 -11.1592
5.47022 -1.86517 -11.1601
8.75072 -1.86437 -11.1662
11.189 -1.86401 -11.189
11.9282 -1.8643 -11.2631
-11.9282 1.8643 -11.2631
-11.1891 1.86401 -11.189
-8.75074 1.86438 -11.1661
-5.47017 1.86515 -11.1601
-1.86557 1.86557 -11.1592
1.86556 1.86555 -11.1592
5.4702 1.86515 -11.1602
8.75073 1.86435 -11.1661
11.189 1.864 -11.189
11.9282 1.86429 -11.2631
-11.9143 5.47124 -11.2635
-11.1899 5.46865 -11.19
-8.75109 5.46838 -11.1669
-5.46953 5.46952 -11.161
-1.86512 5.4702 -11.1602
1.86513 5.47021 -11.1602
5.46955 5.46953 -11.161
8.7511 5.46841 -11.1669
11.19 5.46864 -11.1899
11.9143 5.47125 -11.2635
-11.8823 8.77281 -11.2671
-11.1959 8.76035 -11.1959
-8.75301 8.75304 -11.1727
-5.46839 8.75111 -11.1669
-1.8644 8.75073 -11.1661
1.86436 8.75074 -11.1661
5.46839 8.7511 -11.1669
8.75304 8.75305 -11.1727
11.1959 8.76035 -11.1959
11.8823 8.7728 -11.2671
-11.8472 11.2828 -11.2829
-11.2192 11.2192 -11.2192
-8.76032 11.1959 -11.1959
-5.46866 11.19 -11.19
-1.86402 11.189 -11.1891
1.86403 11.1891 -11.1891
5.46861 11.19 -11.1899
8.76036 11.1959 -11.1959
11.2192 11.2192 -11.2192
11.8472 11.2828 -11.2829
-11.9788 11.9788 -11.3195
-11.2829 11.8472 -11.2829
-8.77284 11.8823 -11.2671
-5.47122 11.9143 -11.2634
-1.86432 11.9282 -11.2631
1.86425 11.9282 -11.2631
5.47125 11.9143 -11.2634
8.77281 11.8823 -11.2671
11.2828 11.8472 -11.2829
11.9787 11.9788 -11.3195
-12.0139 -12.0139 -8.77593
-11.2671 -11.8823 -8.77283
-8.76938 -11.9136 -8.76934
-5.47262 -11.9437 -8.76924
-1.86509 -11.957 -8.76951
1.86513 -11.957 -8.76951
5.47263 -11.9437 -8.76924
8.76937 -11.9136 -8.76934
11.2671 -11.8823 -8.77284
12.0139 -12.0139 -8.77593
-11.8823 -11.2671 -8.77283
-11.1959 -11.1959 -8.76031
-8.75302 -11.1727 -8.753
-5.46841 -11.1669 -8.7511
-1.8644 -11.1661 -8.75071
1.86438 -11.1661 -8.75071
5.46841 -11.1669 -8.75108
8.75305 -11.1727 -8.753
11.1959 -11.1959 -8.76033
11.8824 -11.2671 -8.77284
-11.9136 -8.76937 -8.76935
-11.1727 -8.75301 -8.75301
-8.74551 -8.74551 -8.74553
-5.46801 -8.74357 -8.74353
-1.86471 -8.74319 -8.7432
1.8647 -8.7432 -8.7432
5.46801 -8.74355 -8.74351
8.74551 -8.74554 -8.74556
11.1727 -8.753 -8.75302
11.9136 -8.76937 -8.76936
-11.9437 -5.47262 -8.76923
-11.1669 -5.46841 -8.75106
-8.74358 -5.46802 -8.74354
-5.46909 -5.46907 -8.74161
-1.86546 -5.46972 -8.74126
1.86543 -5.46973 -8.74125
5.46909 -5.46905 -8.74167
8.7435 -5.46806 -8.74351
11.1669 -5.46841 -8.75108
11.9437 -5.47262 -8.76922
-11.957 -1.8651 -8.76953
-11.1662 -1.86439 -8.75072
-8.7432 -1.86476 -8.7432
-5.46974 -1.86546 -8.7413
-1.86586 -1.86584 -8.74087
1.86583 -1.86586 -8.74091
5.46969 -1.86545 -8.74125
8.74315 -1.86477 -8.74321
11.1661 -1.86439 -8.75073
11.9569 -1.86509 -8.76953
-11.957 1.8651 -8.76952
-11.1662 1.86435 -8.7507
-8.74319 1.8647 -8.74321
-5.46972 1.86542 -8.74122
-1.86584 1.86585 -8.74083
1.86585 1.86584 -8.7408
5.46975 1.86548 -8.74127
8.74319 1.86466 -8.7432
11.1661 1.86438 -8.7507
11.957 1.86508 -8.76952
-11.9437 5.47259 -8.76926
-11.1669 5.4684 -8.75109
-8.74354 5.46799 -8.74354
-5.46908 5.46906 -8.74164
-1.86548 5.46973 -8.74128
1.86544 5.46971 -8.74129
5.46907 5.46909 -8.74159
8.74344 5.46798 -8.74356
11.1668 5.46839 -8.7511
11.9436 5.47259 -8.76927
-11.9136 8.76936 -8.76938
-11.1727 8.75305 -8.753
-8.74549 8.74549 -8.74554
-5.46797 8.74351 -8.74356
-1.86471 8.74317 -8.7432
1.86471 8.74317 -8.74317
5.46801 8.74353 -8.74358
8.74549 8.74549 -8.7455
11.1727 8.75304 -8.75302
11.9136 8.76936 -8.76937
-11.8823 11.2671 -8.77285
-11.1959 11.1959 -8.76034
-8.75299 11.1727 -8.753
-5.46837 11.1668 -8.75109
-1.86439 11.1661 -8.75072
1.86435 11.1661 -8.75073
5.46841 11.1668 -8.75108
8.75305 11.1727 -8.75303
11.1959 11.1959 -8.76033
11.8823 11.2671 -8.77285
-12.0139 12.0139 -8.77594
-11.2671 11.8823 -8.77285
-8.76935 11.9136 -8.76937
-5.47259 11.9436 -8.76925
-1.86509 11.957 -8.76953
1.86512 11.9569 -8.76952
5.47261 11.9437 -8.76925
8.76936 11.9136 -8.76938
11.2671 11.8823 -8.77285
12.0139 12.0139 -8.77595
-12.0434 -12.0434 -5.46973
-11.2634 -11.9143 -5.47123
-8.7692 -11.9437 -5.47261
-5.47445 -11.9725 -5.47449
-1.86603 -11.9853 -5.47542
1.86604 -11.9853 -5.47542
5.47445 -11.9725 -5.4745
8.76921 -11.9437 -5.4726
11.2634 -11.9143 -5.47123
12.0434 -12.0434 -5.46973
-11.9143 -11.2634 -5.47124
-11.1899 -11.1899 -5.46865
-8.75105 -11.1669 -5.46845
-5.46952 -11.161 -5.46957
-1.86511 -11.1602 -5.47016
1.86511 -11.1602 -5.47016
5.46949 -11.161 -5.46956
8.75103 -11.1668 -5.46839
11.1898 -11.1899 -5.46866
11.9142 -11.2634 -5.47121
-11.9437 -8.76919 -5.4726
-11.1669 -8.75105 -5.46839
-8.74355 -8.74354 -5.46804
-5.46907 -8.74158 -5.46904
-1.86546 -8.74126 -5.46972
1.86545 -8.74125 -5.46972
5.46908 -8.7416 -5.46902
8.74354 -8.74351 -5.46806
11.1669 -8.75107 -5.46841
11.9437 -8.7692 -5.47263
-11.9725 -5.47445 -5.4745
-11.161 -5.46952 -5.46954
-8.74158 -5.46906 -5.46907
-5.47012 -5.47012 -5.47015
-1.86614 -5.47082 -5.47079
1.86622 -5.4708 -5.47078
5.47021 -5.47015 -5.47019
8.74164 -5.46903 -5.46901
11.161 -5.46954 -5.46956
11.9725 -5.47446 -5.47448
-11.9853 -1.86603 -5.47544
-11.1602 -1.86512 -5.47019
-8.74126 -1.86546 -5.46974
-5.47082 -1.86617 -5.47083
-1.86661 -1.86662 -5.47143
1.86659 -1.8666 -5.47146
5.47079 -1.86616 -5.47077
8.74127 -1.86544 -5.46976
11.1602 -1.86512 -5.47017
11.9853 -1.86601 -5.47543
-11.9853 1.86606 -5.4754
-11.1602 1.8651 -5.47015
-8.74127 1.86545 -5.46972
-5.47082 1.8662 -5.47076
-1.86662 1.8666 -5.47139
1.86658 1.86657 -5.47137
5.47078 1.86619 -5.47083
8.74126 1.86545 -5.46971
11.1601 1.86509 -5.47016
11.9853 1.86602 -5.47542
-11.9725 5.47445 -5.47449
-11.161 5.46949 -5.46959
-8.74159 5.4691 -5.46905
-5.47011 5.4702 -5.47016
-1.86618 5.47077 -5.47085
1.86626 5.47079 -5.47084
5.47022 5.47017 -5.47013
8.74166 5.46911 -5.46907
11.161 5.46954 -5.46958
11.9726 5.47446 -5.47449
-11.9437 8.7692 -5.4726
-11.1669 8.75103 -5.46841
-8.74356 8.74352 -5.46808
-5.46909 8.74165 -5.4691
-1.86548 8.74129 -5.46972
1.86546 8.7413 -5.4697
5.46908 8.74162 -5.46913
8.74348 8.74353 -5.46803
11.1669 8.75099 -5.46843
11.9437 8.76922 -5.47261
-11.9143 11.2634 -5.47124
-11.1899 11.1899 -5.46866
-8.75106 11.1669 -5.4684
-5.46953 11.161 -5.46958
-1.86512 11.1601 -5.47016
1.8651 11.1602 -5.47017
5.46949 11.161 -5.46956
8.75103 11.1669 -5.46846
11.1899 11.1899 -5.46865
11.9143 11.2634 -5.47123
-12.0434 12.0435 -5.46974
-11.2634 11.9143 -5.47124
-8.76921 11.9437 -5.47263
-5.47446 11.9725 -5.47448
-1.86603 11.9853 -5.47544
1.86604 11.9853 -5.47544
5.47445 11.9725 -5.47449
8.76921 11.9437 -5.47261
11.2634 11.9143 -5.47124
12.0434 12.0435 -5.46973
-12.0561 -12.0561 -1.86351
-11.2631 -11.9281 -1.86431
-8.76951 -11.9569 -1.8651
-5.47541 -11.9853 -1.86608
-1.86652 -11.9979 -1.86654
1.86655 -11.998 -1.86652
5.47537 -11.9853 -1.86611
8.7695 -11.957 -1.86511
11.2631 -11.9281 -1.86434
12.0561 -12.0561 -1.8635
-11.9281 -11.2631 -1.86435
-11.189 -11.189 -1.86403
-8.75071 -11.1661 -1.86434
-5.47016 -11.1602 -1.86514
-1.86554 -11.1592 -1.86555
1.86557 -11.1592 -1.86554
5.4702 -11.1601 -1.86517
8.75074 -11.1661 -1.86438
11.189 -11.189 -1.86402
11.9282 -11.2631 -1.86433
-11.9569 -8.76952 -1.8651
-11.1661 -8.75072 -1.86439
-8.74317 -8.74319 -1.86477
-5.4697 -8.74126 -1.86541
-1.86585 -8.74087 -1.86588
1.86584 -8.7409 -1.86587
5.46971 -8.74124 -1.86541
8.74312 -8.74319 -1.86479
11.1661 -8.75071 -1.86437
11.9569 -8.76952 -1.86508
-11.9853 -5.47544 -1.86607
-11.1602 -5.47017 -1.86511
-8.74126 -5.46972 -1.86545
-5.47081 -5.47079 -1.86621
-1.86662 -5.47142 -1.8666
1.86659 -5.47144 -1.8666
5.47079 -5.4708 -1.86624
8.74129 -5.46974 -1.86541
11.1602 -5.47015 -1.86512
11.9854 -5.47541 -1.86607
-11.9979 -1.86649 -1.86651
-11.1592 -1.86553 -1.86557
-8.74087 -1.86587 -1.86586
-5.47141 -1.8666 -1.86663
-1.867 -1.867 -1.86704
1.86701 -1.86703 -1.86705
5.47139 -1.8666 -1.86656
8.74083 -1.86587 -1.86589
11.1592 -1.86553 -1.86556
11.9979 -1.86652 -1.86652
-11.9979 1.8665 -1.86651
-11.1592 1.86556 -1.86554
-8.74086 1.86585 -1.86586
-5.47141 1.8666 -1.86661
-1.86699 1.867 -1.86694
1.867 1.86697 -1.86694
5.4714 1.8666 -1.86661
8.74081 1.86583 -1.86586
11.1592 1.86557 -1.86555
11.9979 1.86652 -1.86652
-11.9853 5.47541 -1.86608
-11.1602 5.47019 -1.86517
-8.74125 5.46966 -1.86545
-5.47082 5.47079 -1.86621
-1.86661 5.47135 -1.86665
1.86658 5.47135 -1.86664
5.47077 5.47081 -1.86619
8.7413 5.46967 -1.86547
11.1602 5.47018 -1.86521
11.9853 5.47538 -1.8661
-11.9569 8.76944 -1.86515
-11.1661 8.7507 -1.8644
-8.74317 8.74312 -1.86479
-5.4697 8.74129 -1.86546
-1.86584 8.74084 -1.86586
1.86584 8.74083 -1.86584
5.46971 8.7413 -1.86553
8.74312 8.74311 -1.86477
11.1661 8.75072 -1.86439
11.9569 8.76945 -1.86516
-11.9281 11.2631 -1.86433
-11.189 11.189 -1.86407
-8.7507 11.1661 -1.86441
-5.47016 11.1602 -1.86518
-1.86554 11.1592 -1.86559
1.86557 11.1591 -1.86557
5.47018 11.1602 -1.86517
8.75072 11.1661 -1.86441
11.189 11.189 -1.86407
11.9282 11.2631 -1.86433
-12.0561 12.0561 -1.86352
-11.2631 11.9282 -1.86434
-8.76951 11.9569 -1.86519
-5.47541 11.9854 -1.86609
-1.86653 11.9979 -1.86654
1.86654 11.9979 -1.86654
5.4754 11.9854 -1.8661
8.76949 11.9569 -1.86515
11.2631 11.9282 -1.86433
12.0561 12.0561 -1.86353
-12.0561 -12.0561 1.86344
-11.2631 -11.9281 1.86425
-8.7695 -11.9569 1.86509
-5.47541 -11.9853 1.86603
-1.86652 -11.9979 1.86652
1.86653 -11.9979 1.86652
5.47537 -11.9854 1.86602
8.76948 -11.9569 1.8651
11.2631 -11.9282 1.86427
12.0561 -12.0561 1.86345
-11.9282 -11.2631 1.8643
-11.189 -11.189 1.864
-8.75072 -11.1661 1.86438
-5.47016 -11.1602 1.86507
-1.86555 -11.1592 1.86553
1.86557 -11.1592 1.86553
5.4702 -11.1602 1.86509
8.75073 -11.1661 1.86442
11.189 -11.1891 1.86402
11.9282 -11.2631 1.86426
-11.9569 -8.76951 1.86509
-11.1661 -8.75072 1.8644
-8.74317 -8.74318 1.86464
-5.46973 -8.74125 1.86548
-1.86584 -8.74087 1.86583
1.86587 -8.7408 1.86583
5.46969 -8.74126 1.8655
8.74315 -8.74316 1.86464
11.1662 -8.75073 1.86438
11.957 -8.76952 1.86506
-11.9853 -5.47541 1.86598
-11.1602 -5.47016 1.86507
-8.74124 -5.46969 1.86546
-5.47081 -5.4708 1.86609
-1.86662 -5.4714 1.86663
1.8666 -5.47136 1.86662
5.47075 -5.47083 1.86612
8.74128 -5.46968 1.86547
11.1601 -5.47017 1.86506
11.9853 -5.47541 1.86601
-11.9979 -1.86649 1.8665
-11.1592 -1.86554 1.86551
-8.74086 -1.86585 1.86582
-5.4714 -1.86663 1.86658
-1.86699 -1.86701 1.86699
1.86701 -1.86691 1.86693
5.4714 -1.86664 1.8666
8.74085 -1.86585 1.86579
11.1592 -1.86555 1.8655
11.9979 -1.8665 1.8665
-11.9979 1.86653 1.86653
-11.1592 1.86556 1.86553
-8.74085 1.86588 1.86581
-5.47138 1.86658 1.86663
-1.867 1.86701 1.86704
1.86702 1.86706 1.86707
5.47142 1.86654 1.86658
8.74089 1.86591 1.86587
11.1592 1.86555 1.86554
11.998 1.86654 1.86653
-11.9853 5.47542 1.86598
-11.1602 5.4702 1.86506
-8.74125 5.46971 1.86548
-5.47081 5.47077 1.86616
-1.86661 5.47139 1.86657
1.86659 5.47146 1.86656
5.47077 5.47073 1.86623
8.74127 5.46974 1.86543
11.1601 5.47019 1.86505
11.9853 5.47542 1.86601
-11.9569 8.76947 1.86502
-11.1661 8.7507 1.86436
-8.74317 8.74315 1.86464
-5.46972 8.74128 1.86543
-1.86584 8.74082 1.86583
1.86587 8.74095 1.86585
5.46968 8.7412 1.86538
8.74311 8.74322 1.86469
11.1661 8.7507 1.8644
11.9569 8.76946 1.86504
-11.9282 11.2631 1.86423
-11.189 11.1891 1.86397
-8.75072 11.1661 1.86437
-5.47016 11.1602 1.86505
-1.86555 11.1592 1.86552
1.86556 11.1593 1.86552
5.47018 11.1601 1.86508
8.7507 11.1662 1.86432
11.189 11.189 1.86394
11.9282 11.2631 1.86423
-12.0561 12.0561 1.86342
-11.2631 11.9282 1.86426
-8.76952 11.9569 1.86505
-5.4754 11.9853 1.86602
-1.86654 11.9979 1.86652
1.86653 11.998 1.86652
5.47539 11.9852 1.866
8.76948 11.957 1.86502
11.2631 11.9282 1.86423
12.0561 12.0561 1.86344
-12.0434 -12.0434 5.46965
-11.2634 -11.9143 5.47118
-8.76921 -11.9437 5.47255
-5.47445 -11.9725 5.47439
-1.86603 -11.9853 5.4754
1.86605 -11.9853 5.47539
5.47448 -11.9725 5.47439
8.7692 -11.9437 5.47258
11.2634 -11.9143 5.47117
12.0434 -12.0434 5.46965
-11.9143 -11.2634 5.47118
-11.1899 -11.1899 5.46855
-8.75105 -11.1669 5.46841
-5.46952 -11.161 5.46947
-1.86512 -11.1602 5.47013
1.8651 -11.1602 5.47012
5.46949 -11.161 5.46945
8.75103 -11.1669 5.46842
11.1898 -11.1899 5.46856
11.9142 -11.2634 5.47118
-11.9437 -8.76922 5.47258
-11.1669 -8.75107 5.4684
-8.74354 -8.74354 5.46794
-5.46906 -8.7416 5.46914
-1.86547 -8.74124 5.46966
1.86544 -8.74128 5.46966
5.46909 -8.74159 5.46912
8.74354 -8.74355 5.46791
11.1668 -8.75107 5.46842
11.9437 -8.76921 5.47258
-11.9725 -5.47447 5.47439
-11.161 -5.46953 5.46952
-8.74159 -5.46907 5.46912
-5.47011 -5.47011 5.47003
-1.8662 -5.4708 5.47082
1.86623 -5.47081 5.47082
5.47018 -5.47011 5.47009
8.74164 -5.46907 5.46914
11.161 -5.46952 5.46947
11.9725 -5.47446 5.4744
-11.9853 -1.86604 5.47538
-11.1602 -1.86511 5.47008
-8.74124 -1.86546 5.46965
-5.4708 -1.86616 5.47083
-1.86661 -1.86661 5.47136
1.86659 -1.86665 5.47133
5.4708 -1.86616 5.47083
8.74127 -1.86546 5.46962
11.1601 -1.86512 5.47011
11.9853 -1.86605 5.47538
-11.9853 1.86603 5.47538
-11.1602 1.86508 5.47012
-8.74125 1.86544 5.46964
-5.47082 1.8662 5.47078
-1.86662 1.86659 5.47143
1.86658 1.86655 5.47144
5.47074 1.86622 5.47075
8.74125 1.86544 5.46963
11.1601 1.86509 5.47017
11.9853 1.86601 5.47538
-11.9725 5.47444 5.47444
-11.161 5.46949 5.46945
-8.74157 5.46906 5.46912
-5.47009 5.47018 5.47013
-1.86617 5.47081 5.47073
1.86625 5.47075 5.47079
5.47018 5.47022 5.47015
8.74167 5.46905 5.46911
11.161 5.46952 5.46944
11.9726 5.4745 5.47441
-11.9437 8.76919 5.47257
-11.1669 8.75099 5.46839
-8.74354 8.7435 5.46792
-5.46907 8.74162 5.46909
-1.86547 8.74128 5.46964
1.86543 8.74124 5.46967
5.4691 8.74166 5.46903
8.74353 8.74347 5.46794
11.1669 8.75102 5.4684
11.9437 8.76925 5.47257
-11.9143 11.2635 5.47121
-11.1899 11.1899 5.46854
-8.75105 11.1669 5.4684
-5.46952 11.161 5.46946
-1.86511 11.1602 5.47012
1.86512 11.1601 5.47011
5.46953 11.161 5.46947
8.75101 11.1668 5.46839
11.1899 11.1899 5.46858
11.9143 11.2634 5.47121
-12.0434 12.0434 5.46966
-11.2634 11.9142 5.4712
-8.76921 11.9437 5.47255
-5.47446 11.9725 5.4744
-1.86603 11.9853 5.47536
1.86606 11.9853 5.47536
5.47449 11.9726 5.4744
8.76926 11.9436 5.47256
11.2634 11.9143 5.4712
12.0435 12.0435 5.46965
-12.0139 -12.0139 8.77592
-11.2671 -11.8823 8.77278
-8.76934 -11.9136 8.76926
-5.4726 -11.9437 8.76915
-1.86507 -11.9569 8.76946
1.86511 -11.9569 8.76951