# vtk DataFile Version 3.0 
Lennard-Jones particle simulation 
ASCII 
DATASET UNSTRUCTURED_GRID 
POINTS 1000 float 
-7.06716 -7.06716 -7.06717
-5.19922 -7.02362 -7.02362
-2.79141 -7.02997 -7.02997
0.0106414 -7.0381 -7.03812
2.98352 -7.0421 -7.0421
6.01649 -7.04209 -7.04209
8.98939 -7.03811 -7.03812
11.7914 -7.02997 -7.02997
14.1992 -7.02362 -7.02362
16.0672 -7.06716 -7.06717
-7.02362 -5.19922 -7.02362
-5.17885 -5.17885 -6.96644
-2.78739 -5.17834 -6.97114
0.0105649 -5.17967 -6.97934
2.98326 -5.18063 -6.9835
6.01672 -5.18063 -6.9835
8.98944 -5.17967 -6.97934
11.7874 -5.17834 -6.97113
14.1788 -5.17885 -6.96644
16.0236 -5.19923 -7.02362
-7.02997 -2.79142 -7.02997
-5.17834 -2.78738 -6.97113
-2.78866 -2.78866 -6.97498
0.00881682 -2.79015 -6.98273
2.98257 -2.79088 -6.9868
6.01745 -2.79088 -6.9868
8.99119 -2.79015 -6.98273
11.7887 -2.78866 -6.97499
14.1783 -2.78738 -6.97114
16.03 -2.79141 -7.02998
-7.03811 0.0106402 -7.03811
-5.17968 0.0105598 -6.97934
-2.79015 0.00882827 -6.98275
0.00724754 0.00724777 -6.99018
2.9819 0.00651102 -6.99412
6.0181 0.00651007 -6.99412
8.99275 0.00724809 -6.99021
11.7901 0.00881957 -6.98273
14.1797 0.0105715 -6.97933
16.0381 0.0106348 -7.03811
-7.0421 2.98354 -7.0421
-5.18064 2.98326 -6.98351
-2.79089 2.98258 -6.98679
0.00650144 2.9819 -6.99415
2.98158 2.98159 -6.99797
6.01842 2.98158 -6.99798
8.99348 2.9819 -6.99411
11.7909 2.98257 -6.98681
14.1806 2.98326 -6.9835
16.0421 2.98353 -7.04209
-7.04209 6.01647 -7.04209
-5.18063 6.01674 -6.98349
-2.79089 6.01744 -6.9868
0.00650803 6.01809 -6.99409
2.9816 6.0184 -6.99795
6.01842 6.01841 -6.99795
8.9935 6.01809 -6.99412
11.7909 6.01744 -6.98679
14.1807 6.01674 -6.9835
16.0421 6.01648 -7.04209
-7.03812 8.98939 -7.03813
-5.17969 8.98944 -6.97935
-2.79017 8.99122 -6.98275
0.00724217 8.99274 -6.9902
2.9819 8.99349 -6.99413
6.01808 8.99348 -6.99414
8.99274 8.99274 -6.99019
11.7901 8.99118 -6.98276
14.1797 8.98943 -6.97935
16.0381 8.98937 -7.03812
-7.02997 11.7914 -7.02998
-5.17834 11.7874 -6.97113
-2.78867 11.7887 -6.97499
0.00881654 11.7902 -6.98275
2.98258 11.7909 -6.98679
6.01745 11.7909 -6.9868
8.99119 11.7902 -6.98277
11.7887 11.7887 -6.97498
14.1783 11.7874 -6.97114
16.03 11.7914 -7.02998
-7.02362 14.1992 -7.02363
-5.17886 14.1788 -6.96645
-2.78739 14.1784 -6.97114
0.0105633 14.1797 -6.97935
2.98327 14.1806 -6.98351
6.01672 14.1806 -6.9835
8.98945 14.1797 -6.97934
11.7874 14.1783 -6.97115
14.1788 14.1789 -6.96645
16.0236 14.1992 -7.02363
-7.06716 16.0672 -7.06717
-5.19923 16.0236 -7.02362
-2.79142 16.03 -7.02998
0.0106359 16.0381 -7.03812
2.98352 16.0421 -7.0421
6.01649 16.0421 -7.0421
8.98937 16.0381 -7.03812
11.7914 16.03 -7.02998
14.1992 16.0236 -7.02363
16.0672 16.0672 -7.06717
-7.02362 -7.02362 -5.19924
-5.17886 -6.96644 -5.17885
-2.78739 -6.97114 -5.17834
0.0105668 -6.97933 -5.17968
2.98326 -6.9835 -5.18064
6.01671 -6.9835 -5.18064
8.98945 -6.97934 -5.17968
11.7874 -6.97113 -5.17834
14.1788 -6.96644 -5.17886
16.0236 -7.02362 -5.19923
-6.96644 -5.17885 -5.17885
-5.14594 -5.14594 -5.14594
-2.77744 -5.14272 -5.14271
0.0131719 -5.14313 -5.14314
2.98375 -5.14384 -5.14384
6.01626 -5.14384 -5.14384
8.98681 -5.14313 -5.14314
11.7775 -5.14272 -5.14271
14.146 -5.14594 -5.14594
15.9664 -5.17885 -5.17886
-6.97115 -2.78738 -5.17834
-5.14272 -2.77744 -5.14271
-2.77718 -2.77718 -5.13892
0.0121304 -2.77795 -5.13907
2.98324 -2.77842 -5.13975
6.01675 -2.77842 -5.13974
8.98788 -2.77795 -5.13907
11.7772 -2.77717 -5.13893
14.1427 -2.77745 -5.14272
15.9711 -2.78739 -5.17835
-6.97933 0.010564 -5.17968
-5.14312 0.0131858 -5.14313
-2.77795 0.0121335 -5.13909
0.0108739 0.0108764 -5.1391
2.98269 0.0102756 -5.13971
6.01732 0.0102767 -5.13971
8.98913 0.0108751 -5.13913
11.778 0.0121369 -5.13907
14.1431 0.0131789 -5.14313
15.9793 0.0105622 -5.17968
-6.9835 2.98326 -5.18064
-5.14384 2.98375 -5.14385
-2.77842 2.98324 -5.13974
0.010274 2.98266 -5.13973
2.98239 2.98238 -5.14024
6.01763 2.9824 -5.14025
8.98975 2.98266 -5.1397
11.7784 2.98325 -5.13976
14.1439 2.98376 -5.14384
15.9835 2.98326 -5.18064
-6.98352 6.01674 -5.18063
-5.14386 6.01625 -5.14383
-2.77844 6.01675 -5.13975
0.010268 6.01734 -5.13968
2.98237 6.01763 -5.14023
6.01763 6.01762 -5.14022
8.98974 6.01733 -5.13971
11.7784 6.01674 -5.13974
14.1438 6.01624 -5.14384
15.9835 6.01673 -5.18064
-6.97933 8.98944 -5.17969
-5.14313 8.98683 -5.14315
-2.77796 8.98786 -5.13908
0.0108714 8.98912 -5.13913
2.98268 8.98974 -5.13972
6.01732 8.98975 -5.13973
8.98914 8.98912 -5.1391
11.778 8.98788 -5.1391
14.1432 8.98682 -5.14314
15.9794 8.98945 -5.17969
-6.97114 11.7874 -5.17835
-5.14272 11.7775 -5.14271
-2.77718 11.7772 -5.13893
0.0121332 11.778 -5.13909
2.98324 11.7784 -5.13974
6.01674 11.7784 -5.13974
8.98787 11.778 -5.13911
11.7772 11.7772 -5.13892
14.1427 11.7775 -5.14272
15.9711 11.7874 -5.17835
-6.96645 14.1788 -5.17886
-5.14594 14.146 -5.14595
-2.77744 14.1427 -5.14272
0.0131676 14.1432 -5.14315
2.98375 14.1438 -5.14385
6.01626 14.1439 -5.14385
8.98681 14.1432 -5.14314
11.7775 14.1427 -5.14273
14.146 14.146 -5.14595
15.9664 14.1788 -5.17886
-7.02363 16.0236 -5.19923
-5.17886 15.9664 -5.17886
-2.78739 15.9711 -5.17836
0.0105614 15.9793 -5.17969
2.98326 15.9835 -5.18064
6.01671 15.9835 -5.18064
8.98945 15.9794 -5.17969
11.7874 15.9711 -5.17835
14.1788 15.9664 -5.17886
16.0236 16.0236 -5.19924
-7.02998 -7.02998 -2.79143
-5.17835 -6.97115 -2.78739
-2.78867 -6.97497 -2.78866
0.00880927 -6.98276 -2.79016
2.98257 -6.98681 -2.79089
6.01745 -6.9868 -2.79089
8.9912 -6.98274 -2.79016
11.7887 -6.97499 -2.78866
14.1784 -6.97114 -2.78739
16.03 -7.02998 -2.79142
-6.97115 -5.17835 -2.78739
-5.14273 -5.14273 -2.77744
-2.77719 -5.13891 -2.77718
0.0121265 -5.1391 -2.77796
2.98324 -5.13975 -2.77842
6.01675 -5.13975 -2.77842
8.98788 -5.13908 -2.77796
11.7772 -5.13893 -2.77718
14.1427 -5.14272 -2.77745
15.9712 -5.17835 -2.78739
-6.97497 -2.78867 -2.78866
-5.13891 -2.77718 -2.77718
-2.77661 -2.77661 -2.77662
0.0112075 -2.77726 -2.77724
2.98277 -2.77769 -2.7777
6.01722 -2.7777 -2.77769
8.98879 -2.77726 -2.77724
11.7766 -2.77663 -2.77664
14.1389 -2.77718 -2.77718
15.975 -2.78867 -2.78867
-6.98276 0.00881141 -2.79016
-5.1391 0.0121264 -2.77795
-2.77727 0.011207 -2.77725
0.0100115 0.0100212 -2.77784
2.98221 0.00942271 -2.77826
6.01778 0.00941657 -2.77826
8.98999 0.0100338 -2.77787
11.7772 0.0111861 -2.77723
14.1391 0.0121274 -2.77795
15.9827 0.00881117 -2.79015
-6.98681 2.98256 -2.7909
-5.13976 2.98324 -2.77843
-2.7777 2.98275 -2.7777
0.00941162 2.98221 -2.77828
2.98192 2.98194 -2.77866
6.01806 2.98192 -2.77868
8.99056 2.98222 -2.77826
11.7777 2.98274 -2.7777
14.1397 2.98324 -2.77843
15.9868 2.98257 -2.7909
-6.98682 6.01744 -2.79089
-5.13976 6.01674 -2.77842
-2.77769 6.01722 -2.7777
0.00942508 6.01777 -2.77824
2.98194 6.01807 -2.77863
6.01807 6.01806 -2.77862
8.99059 6.0178 -2.77827
11.7777 6.0172 -2.77769
14.1397 6.01675 -2.77842
15.9868 6.01743 -2.79089
-6.98273 8.99118 -2.79017
-5.13907 8.98787 -2.77796
-2.77725 8.98878 -2.77725
0.0100181 8.98997 -2.77786
2.9822 8.99058 -2.77828
6.01778 8.99057 -2.77828
8.98997 8.98999 -2.77784
11.7772 8.98877 -2.77726
14.1391 8.98787 -2.77796
15.9827 8.99118 -2.79017
-6.97496 11.7887 -2.78868
-5.1389 11.7772 -2.77718
-2.7766 11.7766 -2.77663
0.0112283 11.7772 -2.77726
2.98278 11.7777 -2.77769
6.01723 11.7777 -2.77768
8.98879 11.7772 -2.77728
11.7766 11.7766 -2.77661
14.1389 11.7772 -2.77719
15.975 11.7887 -2.78867
-6.97113 14.1783 -2.7874
-5.14271 14.1427 -2.77745
-2.77717 14.1389 -2.77718
0.0121431 14.1391 -2.77797
2.98324 14.1397 -2.77843
6.01674 14.1397 -2.77843
8.98788 14.1391 -2.77796
11.7772 14.1389 -2.7772
14.1427 14.1427 -2.77745
15.9711 14.1783 -2.7874
-7.02996 16.03 -2.79143
-5.17833 15.9711 -2.7874
-2.78866 15.975 -2.78868
0.00882562 15.9827 -2.79017
2.98257 15.9868 -2.79089
6.01745 15.9868 -2.79089
8.99119 15.9827 -2.79016
11.7887 15.975 -2.78868
14.1783 15.9711 -2.7874
16.03 16.03 -2.79143
-7.03809 -7.03809 0.010617
-5.17966 -6.97931 0.0105594
-2.79014 -6.98274 0.00881657
0.0072568 -6.99018 0.00723644
2.98191 -6.99412 0.00650595
6.01809 -6.99412 0.00650523
8.99274 -6.99018 0.00723024
11.7901 -6.98273 0.00882131
14.1797 -6.97932 0.0105539
16.0381 -7.03809 0.0106177
-6.97931 -5.17966 0.0105548
-5.14311 -5.14311 0.0131736
-2.77794 -5.13908 0.012105
0.0108806 -5.1391 0.0108539
2.98268 -5.13971 0.0102752
6.01732 -5.13971 0.0102724
8.9891 -5.13911 0.0108577
11.7779 -5.13907 0.0121346
14.1431 -5.14312 0.0131707
15.9793 -5.17966 0.0105664
-6.98274 -2.79013 0.00882002
-5.13908 -2.77794 0.0121315
-2.77726 -2.77725 0.0111928
0.0100207 -2.77783 0.010041
2.98221 -2.77826 0.00942306
6.01778 -2.77826 0.00942023
8.98998 -2.77784 0.0100476
11.7772 -2.77724 0.0111816
14.1391 -2.77795 0.0121236
15.9828 -2.79014 0.0088049
-6.99018 0.00725777 0.00723361
-5.13909 0.0108785 0.0108711
-2.77783 0.0100312 0.0100229
0.00886273 0.008865 0.00884943
2.98169 0.00824446 0.00826095
6.01835 0.00825424 0.00826317
8.99118 0.00885011 0.00882503
11.7779 0.0100466 0.0100515
14.1391 0.0108712 0.0108578
15.9902 0.00725427 0.00724126
-6.99412 2.98191 0.00649506
-5.13971 2.98268 0.0102596
-2.77826 2.98221 0.00941322
0.00824714 2.98168 0.00824144
2.98138 2.98137 0.00767305
6.01861 2.98138 0.00765684
8.99174 2.98168 0.00826935
11.7783 2.98222 0.00940164
14.1397 2.98268 0.0102662
15.9941 2.98192 0.00649739
-6.99412 6.0181 0.00651249
-5.13971 6.01731 0.0102769
-2.77827 6.01779 0.00942156
0.00824733 6.01834 0.00827402
2.98137 6.01862 0.00769764
6.01861 6.01861 0.00770543
8.99173 6.01833 0.00823998
11.7783 6.01778 0.00942506
14.1397 6.01731 0.0102744
15.9941 6.01808 0.00650299
-6.99018 8.99274 0.00723752
-5.1391 8.9891 0.0108425
-2.77783 8.98999 0.0100311
0.00887106 8.99118 0.00884146
2.98167 8.99173 0.00822827
6.01837 8.99174 0.00823149
8.99119 8.99116 0.00886098
11.7779 8.98999 0.0100231
14.1391 8.98912 0.0108472
15.9902 8.99275 0.0072318
-6.98275 11.7901 0.00881437
-5.13909 11.7779 0.0121259
-2.77726 11.7772 0.011172
0.0100136 11.7779 0.0100073
2.9822 11.7783 0.0094213
6.01779 11.7783 0.00943321
8.98998 11.7779 0.0099919
[...]
POINT_DATA 1000
SCALARS mass float 
LOOKUP_TABLE default 
1
1
1
1
1
1
1
1
1
1
1
1
1
1
1
1
1
1
1
1
1
1
1
1
1
1
1
1
1
1
1
1
1
1
1
1
1
1
1
1
1
1
1
1
1
1
1
1
1
1
1
1
1
1
1
1
1
1
1
1
1
1
1
1
1
1
1
1
1
1
1
1
1
1
1
1
1
1
1
1
1
1
1
1
1
1
1
1
1
1
1
1
1
1
1
1
1
1
1
1
1
1
1
1
1
1
1
1
1
1
1
1
1
1
1
1
1
1
1
1
1
1
1
1
1
1
1
1
1
1
1
1
1
1
1
1
1
1
1
1
1
1
1
1
1
1
1
1
1
1
1
1
1
1
1
1
1
1
1
1
1
1
1
1
1
1
1
1
1
1
1
1
1
1
1
1
1
1
1
1
1
1
1
1
1
1
1
1
1
1
1
1
1
1
1
1
1
1
1
1
1
1
1
1
1
1
1
1
1
1
1
1
1
1
1
1
1
1
1
1
1
1
1
1
1
1
1
1
1
1
1
1
1
1
1
1
1
1
1
1
1
1
1
1
1
1
1
1
1
1
1
1
1
1
1
1
1
1
1
1
1
1
1
1
1
1
1
1
1
1
1
1
1
1
1
1
1
1
1
1
1
1
1
1
1
1
1
1
1
1
1
1
1
1
1
1
1
1
1
1
1
1
1
1
1
1
1
1
1
1
1
1
1
1
1
1
1
1
1
1
1
1
1
1
1
1
1
1
1
1
1
1
1
1
1
1
1
1
1
1
1
1
1
1
1
1
1
1
1
1
1
1
1
1
1
1
1
1
1
1
1
1
1
1
1
1
1
1
1
1
1
1
1
1
1
1
1
1
1
1
1
1
1
1
1
1
1
1
1
1
1
1
1
1
1
1
1
1
1
1
1
1
1
1
1
1
1
1
1
1
1
1
1
1
1
1
1
1
1
1
1
1
1
1
1
1
1
1
1
1
1
1
1
1
1
1
1
1
1
1
1
1
1
1
1
1
1
1
1
1
1
1
1
1
1
1
1
1
1
1
1
1
1
1
1
1
1
1
1
1
1
1
1
1
1
1
1
1
1
1
1
1
1
1
1
1
1
1
1
1
1
1
1
1
1
1
1
1
1
1
1
1
1
1
1
1
1
1
1
1
1
1
1
1
1
1
1
1
1
1
1
1
1
1
1
1
1
1
1
1
1
1
1
1
1
1
1
1
1
1
1
1
1
1
1
1
1
1
1
1
1
1
1
1
1
1
1
1
1
1
1
1
1
1
1
1
1
1
1
1
1
1
1
1
1
1
1
1
1
1
1
1
1
1
1
1
1
1
1
1
1
1
1
1
1
1
1
1
1
1
1
1
1
1
1
1
1
1
1
1
1
1
1
1
1
1
1
1
1
1
1
1
1
1
1
1
1
1
1
1
1
1
1
1
1
1
1
1
1
1
1
1
1
1
1
1
1
1
1
1
1
1
1
1
1
1
1
1
1
1
1
1
1
1
1
1
1
1
1
1
1
1
1
1
1
1
1
1
1
1
1
1
1
1
1
1
1
1
1
1
1
1
1
1
1
1
1
1
1
1
1
1
1
1
1
1
1
1
1
1
1
1
1
1
1
1
1
1
1
1
1
1
1
1
1
1
1
1
1
1
1
1
1
1
1
1
1
1
1
1
1
1
1
1
1
1
1
1
1
1
1
1
1
1
1
1
1
1
1
1
1
1
1
1
1
1
1
1
1
1
1
1
1
1
1
1
1
1
1
1
1
1
1
1
1
1
1
1
1
1
1
1
1
1
1
1
1
1
1
1
1
1
1
1
1
1
1
1
1
1
1
1
1
1
1
1
1
1
1
1
1
1
1
1
1
1
1
1
1
1
1
1
1
1
1
1
1
1
1
1
1
1
1
1
1
1
1
1
1
1
1
1
1
1
1
1
1
1
1
1
1
1
1
1
1
1
1
1
1
1
1
1
1
1
1
1
1
1
1
1
1
1
1
1
1
1
1
1
1
1
1
1
1
1
1
1
1
1
1
1
1
1
1
1
1
1
1
1
1
1
1
1
1
1
1
1
1
1
1
1
1
1
1
1
1
1
1
1
1
1
1
1
1
1
1
1
1
1
1
1
1
1
1
1
1
1
1
1
1
1
1
1
1
1
1
1
1
1
1
1
1
1
1
1
1
1
1
1
1
1
1
1
1
1
1
1
1
1
1
1
1
1
1
1
1
1
1
1
1
1
1
1
1
1
1
1
1
1
1
1
VECTORS velocity float 
-12.1699 -12.1699 -12.1699
-11.2553 -12.0684 -12.0684
-8.76593 -12.0965 -12.0965
-5.46768 -12.1225 -12.1225
-1.86293 -12.134 -12.134
1.86295 -12.134 -12.134
5.46773 -12.1225 -12.1225
8.76593 -12.0965 -12.0965
11.2553 -12.0684 -12.0684
12.1699 -12.1699 -12.1699
-12.0684 -11.2553 -12.0684
-11.2125 -11.2125 -11.9423
-8.76154 -11.2031 -11.9698
-5.46908 -11.2019 -11.9977
-1.86376 -11.2026 -12.0102
1.86371 -11.2025 -12.0102
5.46909 -11.2019 -11.9977
8.76153 -11.2031 -11.9698
11.2124 -11.2124 -11.9423
12.0684 -11.2553 -12.0684
-12.0965 -8.76594 -12.0965
-11.203 -8.76154 -11.9698
-8.75944 -8.75943 -11.9946
-5.47078 -8.7597 -12.0211
-1.8646 -8.76009 -12.0331
1.86464 -8.76009 -12.0331
5.4708 -8.7597 -12.0211
8.75942 -8.75943 -11.9946
11.203 -8.76152 -11.9698
12.0965 -8.76592 -12.0965
-12.1225 -5.46769 -12.1225
-11.2019 -5.46909 -11.9977
-8.7597 -5.47076 -12.0211
-5.47275 -5.47275 -12.0465
-1.86561 -5.47372 -12.0582
1.86561 -5.47372 -12.0582
5.47276 -5.47275 -12.0466
8.7597 -5.47078 -12.0211
11.202 -5.46907 -11.9977
12.1225 -5.4677 -12.1225
-12.134 -1.8629 -12.134
-11.2026 -1.86374 -12.0102
-8.76011 -1.8646 -12.0331
-5.47373 -1.86561 -12.0583
-1.8661 -1.86609 -12.0697
1.86611 -1.86609 -12.0697
5.47368 -1.86561 -12.0582
8.76007 -1.8646 -12.0332
11.2025 -1.86375 -12.0102
12.1339 -1.86291 -12.134
-12.134 1.8629 -12.134
-11.2025 1.86376 -12.0102
-8.76011 1.86463 -12.0331
-5.47372 1.8656 -12.0582
-1.86606 1.86607 -12.0697
1.8661 1.86608 -12.0696
5.47373 1.8656 -12.0582
8.76013 1.86464 -12.0331
11.2026 1.86376 -12.0102
12.134 1.86292 -12.134
-12.1225 5.46775 -12.1225
-11.202 5.4691 -11.9977
-8.75973 5.47085 -12.0211
-5.47276 5.47272 -12.0466
-1.86562 5.47371 -12.0582
1.86557 5.4737 -12.0583
5.47272 5.47273 -12.0465
8.7597 5.47077 -12.0211
11.202 5.46907 -11.9977
12.1225 5.46771 -12.1225
-12.0965 8.76592 -12.0965
-11.203 8.76151 -11.9698
-8.75944 8.75943 -11.9946
-5.47078 8.75971 -12.0211
-1.8646 8.76011 -12.0331
1.86465 8.76011 -12.0331
5.47079 8.75972 -12.0211
8.75943 8.75943 -11.9946
11.203 8.76156 -11.9698
12.0965 8.76594 -12.0965
-12.0684 11.2553 -12.0684
-11.2125 11.2124 -11.9424
-8.76155 11.2031 -11.9698
-5.46909 11.2019 -11.9977
-1.86373 11.2026 -12.0102
1.86372 11.2026 -12.0102
5.46911 11.202 -11.9977
8.76152 11.2031 -11.9698
11.2124 11.2125 -11.9423
12.0684 11.2553 -12.0684
-12.1699 12.1699 -12.1699
-11.2553 12.0684 -12.0684
-8.76594 12.0965 -12.0965
-5.4677 12.1225 -12.1225
-1.86292 12.134 -12.134
1.86294 12.134 -12.134
5.46771 12.1225 -12.1225
8.76594 12.0965 -12.0965
11.2553 12.0684 -12.0684
12.1699 12.1699 -12.1699
-12.0684 -12.0684 -11.2553
-11.2125 -11.9423 -11.2125
-8.76155 -11.9698 -11.2031
-5.46908 -11.9977 -11.2019
-1.86376 -12.0102 -11.2026
1.8637 -12.0102 -11.2026
5.46911 -11.9977 -11.2019
8.76152 -11.9698 -11.2031
11.2124 -11.9423 -11.2125
12.0684 -12.0684 -11.2553
-11.9423 -11.2125 -11.2125
-11.1415 -11.1415 -11.1415
-8.74657 -11.1256 -11.1256
-5.46593 -11.1226 -11.1226
-1.86333 -11.1227 -11.1227
1.86335 -11.1227 -11.1227
5.46588 -11.1226 -11.1226
8.74662 -11.1256 -11.1256
11.1415 -11.1415 -11.1415
11.9423 -11.2125 -11.2125
-11.9698 -8.76153 -11.2031
-11.1256 -8.74657 -11.1256
-8.74088 -8.74087 -11.109
-5.46607 -8.73938 -11.1058
-1.86382 -8.73916 -11.106
1.8638 -8.73915 -11.106
5.46608 -8.73939 -11.1058
8.74088 -8.74086 -11.1091
11.1256 -8.74658 -11.1256
11.9698 -8.76155 -11.2031
-11.9977 -5.46908 -11.2019
-11.1225 -5.4659 -11.1226
-8.7394 -5.46606 -11.1058
-5.46731 -5.46731 -11.1023
-1.86455 -5.46796 -11.1024
1.86456 -5.46796 -11.1024
5.46733 -5.46731 -11.1024
8.7394 -5.46606 -11.1058
11.1226 -5.46592 -11.1225
11.9977 -5.46909 -11.2019
-12.0102 -1.86375 -11.2026
-11.1227 -1.86333 -11.1227
-8.73915 -1.8638 -11.106
-5.46797 -1.8646 -11.1025
-1.86499 -1.865 -11.1024
1.86501 -1.86497 -11.1024
5.46802 -1.86461 -11.1024
8.73917 -1.86378 -11.106
11.1227 -1.86332 -11.1227
12.0102 -1.86375 -11.2026
-12.0102 1.86374 -11.2025
-11.1228 1.86332 -11.1227
-8.73919 1.86379 -11.106
-5.46798 1.86459 -11.1024
-1.86502 1.86502 -11.1024
1.86501 1.865 -11.1024
5.46801 1.86459 -11.1024
8.73917 1.86376 -11.106
11.1227 1.86331 -11.1227
12.0102 1.86374 -11.2026
-11.9977 5.4691 -11.202
-11.1225 5.46593 -11.1226
-8.7394 5.46605 -11.1058
-5.46731 5.4673 -11.1024
-1.86456 5.46801 -11.1025
1.86457 5.46802 -11.1025
5.46733 5.46731 -11.1023
8.73942 5.46608 -11.1058
11.1226 5.46592 -11.1226
11.9977 5.46912 -11.202
-11.9698 8.76153 -11.2031
-11.1256 8.7466 -11.1256
-8.74088 8.74091 -11.1091
-5.46606 8.73943 -11.1058
-1.86382 8.73917 -11.106
1.86377 8.73918 -11.106
5.46606 8.73942 -11.1058
8.74091 8.74092 -11.109
11.1255 8.7466 -11.1256
11.9698 8.76152 -11.2031
-11.9423 11.2124 -11.2125
-11.1415 11.1415 -11.1415
-8.74657 11.1256 -11.1256
-5.46594 11.1226 -11.1226
-1.86333 11.1227 -11.1227
1.86335 11.1228 -11.1227
5.46588 11.1226 -11.1226
8.74662 11.1256 -11.1256
11.1415 11.1415 -11.1415
11.9423 11.2124 -11.2125
-12.0684 12.0684 -11.2553
-11.2125 11.9423 -11.2125
-8.76156 11.9698 -11.2031
-5.46909 11.9977 -11.202
-1.86376 12.0102 -11.2026
1.8637 12.0102 -11.2026
5.46911 11.9977 -11.202
8.76153 11.9698 -11.2031
11.2124 11.9423 -11.2125
12.0684 12.0684 -11.2553
-12.0965 -12.0965 -8.76595
-11.2031 -11.9698 -8.76155
-8.75946 -11.9946 -8.75942
-5.4708 -12.0211 -8.75972
-1.86462 -12.0331 -8.7601
1.86465 -12.0331 -8.7601
5.47081 -12.0211 -8.75972
8.75944 -11.9946 -8.75942
11.2031 -11.9698 -8.76156
12.0965 -12.0965 -8.76595
-11.9698 -11.2031 -8.76154
-11.1256 -11.1256 -8.74657
-8.74088 -11.109 -8.74087
-5.46608 -11.1058 -8.73941
-1.86382 -11.106 -8.73915
1.8638 -11.106 -8.73915
5.46608 -11.1058 -8.7394
8.74092 -11.1091 -8.74087
11.1256 -11.1256 -8.74658
11.9698 -11.2031 -8.76156
-11.9946 -8.75945 -8.75943
-11.109 -8.74088 -8.74087
-8.73486 -8.73485 -8.73488
-5.46607 -8.73329 -8.73325
-1.86423 -8.73303 -8.73303
1.86421 -8.73303 -8.73303
5.46606 -8.73328 -8.73324
8.73486 -8.73489 -8.7349
11.109 -8.74087 -8.74089
11.9946 -8.75945 -8.75944
-12.0211 -5.47079 -8.7597
-11.1058 -5.46608 -8.73938
-8.7333 -5.46607 -8.73326
-5.46725 -5.46723 -8.73168
-1.865 -5.4679 -8.73143
1.86497 -5.46791 -8.73141
5.46725 -5.4672 -8.73174
8.73322 -5.46611 -8.73324
11.1058 -5.46608 -8.73939
12.0211 -5.47079 -8.7597
-12.0331 -1.86463 -8.76012
-11.106 -1.8638 -8.73917
-8.73303 -1.86427 -8.73303
-5.46792 -1.865 -8.73147
-1.86541 -1.86539 -8.73113
1.86538 -1.86541 -8.73117
5.46787 -1.86499 -8.73141
8.73298 -1.86428 -8.73304
11.106 -1.86381 -8.73917
12.0331 -1.86461 -8.76012
-12.0332 1.86463 -8.76011
-11.106 1.86376 -8.73915
-8.73302 1.86422 -8.73304
-5.4679 1.86496 -8.73139
-1.86539 1.8654 -8.73109
1.8654 1.86538 -8.73106
5.46793 1.86502 -8.73144
8.73302 1.86417 -8.73303
11.106 1.86379 -8.73914
12.0332 1.86461 -8.76011
-12.0211 5.47076 -8.75973
-11.1058 5.46607 -8.73941
-8.73326 5.46604 -8.73327
-5.46723 5.46722 -8.73171
-1.86502 5.46791 -8.73145
1.86498 5.46789 -8.73145
5.46722 5.46725 -8.73166
8.73317 5.46604 -8.73329
11.1057 5.46606 -8.73941
12.021 5.47076 -8.75974
-11.9946 8.75943 -8.75946
-11.109 8.74092 -8.74087
-8.73483 8.73484 -8.73488
-5.46603 8.73323 -8.73329
-1.86422 8.733 -8.73303
1.86422 8.733 -8.733
5.46607 8.73326 -8.73331
8.73484 8.73483 -8.73485
11.109 8.74091 -8.74089
11.9946 8.75943 -8.75945
-11.9698 11.203 -8.76157
-11.1256 11.1256 -8.74659
-8.74086 11.109 -8.74087
-5.46604 11.1057 -8.73941
-1.8638 11.106 -8.73917
1.86376 11.106 -8.73917
5.46608 11.1057 -8.7394
8.74092 11.109 -8.7409
11.1256 11.1256 -8.74659
11.9698 11.203 -8.76157
-12.0965 12.0965 -8.76596
-11.203 11.9698 -8.76156
-8.75942 11.9946 -8.75945
-5.47076 12.021 -8.75973
-1.86461 12.0331 -8.76012
1.86464 12.0331 -8.76011
5.47079 12.0211 -8.75972
8.75944 11.9946 -8.75946
11.203 11.9698 -8.76157
12.0965 12.0965 -8.76597
-12.1225 -12.1225 -5.46773
-11.2019 -11.9977 -5.46909
-8.75967 -12.0211 -5.47078
-5.47273 -12.0465 -5.47277
-1.86559 -12.0582 -5.47373
1.8656 -12.0582 -5.47373
5.47273 -12.0465 -5.47278
8.75968 -12.0211 -5.47077
11.2019 -11.9977 -5.4691
12.1225 -12.1225 -5.46773
-11.9977 -11.2019 -5.4691
-11.1225 -11.1225 -5.46593
-8.73936 -11.1058 -5.46613
-5.4673 -11.1023 -5.46735
-1.86455 -11.1024 -5.46796
1.86455 -11.1024 -5.46797
5.46726 -11.1024 -5.46734
8.73934 -11.1058 -5.46606
11.1225 -11.1225 -5.46593
11.9977 -11.2019 -5.46908
-12.0211 -8.75967 -5.47077
-11.1058 -8.73936 -5.46607
-8.73328 -8.73326 -5.4661
-5.46723 -8.73165 -5.46719
-1.865 -8.73143 -5.4679
1.86499 -8.73141 -5.4679
5.46724 -8.73167 -5.46718
8.73326 -8.73324 -5.46612
11.1058 -8.73939 -5.46608
12.0211 -8.75968 -5.4708
-12.0465 -5.47273 -5.47278
-11.1023 -5.4673 -5.46732
-8.73165 -5.46721 -5.46723
-5.46837 -5.46836 -5.46839
-1.86571 -5.46909 -5.46905
1.86578 -5.46907 -5.46905
5.46845 -5.46839 -5.46844
8.73171 -5.46718 -5.46717
11.1024 -5.46732 -5.46734
12.0466 -5.47274 -5.47276
-12.0582 -1.86559 -5.47375
-11.1024 -1.86457 -5.46799
-8.73143 -1.865 -5.46792
-5.46908 -1.86573 -5.46909
-1.86618 -1.86619 -5.46971
1.86616 -1.86617 -5.46975
5.46906 -1.86573 -5.46903
8.73144 -1.86498 -5.46794
11.1024 -1.86456 -5.46798
12.0582 -1.86557 -5.47374
-12.0582 1.86562 -5.47371
-11.1024 1.86454 -5.46796
-8.73143 1.86499 -5.4679
-5.46908 1.86576 -5.46903
-1.86619 1.86617 -5.46967
1.86615 1.86614 -5.46966
5.46905 1.86575 -5.46909
8.73143 1.86499 -5.46789
11.1024 1.86453 -5.46797
12.0582 1.86558 -5.47373
-12.0465 5.47273 -5.47276
-11.1023 5.46726 -5.46737
-8.73166 5.46725 -5.46721
-5.46835 5.46844 -5.46841
-1.86574 5.46903 -5.46911
1.86583 5.46906 -5.46911
5.46846 5.46841 -5.46837
8.73173 5.46726 -5.46722
11.1024 5.46732 -5.46736
12.0466 5.47274 -5.47277
-12.0211 8.75968 -5.47078
-11.1058 8.73935 -5.46608
-8.73329 8.73325 -5.46614
-5.46724 8.73172 -5.46726
-1.86502 8.73145 -5.4679
1.865 8.73146 -5.46788
5.46724 8.73169 -5.46728
8.7332 8.73326 -5.46608
11.1058 8.73931 -5.4661
12.0211 8.75969 -5.47079
-11.9977 11.2019 -5.4691
-11.1225 11.1225 -5.46593
-8.73938 11.1058 -5.46607
-5.46731 11.1024 -5.46736
-1.86456 11.1024 -5.46796
1.86454 11.1024 -5.46797
5.46727 11.1024 -5.46733
8.73935 11.1058 -5.46613
11.1225 11.1225 -5.46593
11.9977 11.2019 -5.4691
-12.1225 12.1225 -5.46774
-11.2019 11.9977 -5.4691
-8.75968 12.0211 -5.47081
-5.47274 12.0466 -5.47276
-1.86558 12.0582 -5.47375
1.8656 12.0582 -5.47374
5.47273 12.0466 -5.47277
8.75969 12.0211 -5.47079
11.2019 11.9977 -5.4691
12.1225 12.1225 -5.46773
-12.134 -12.134 -1.86297
-11.2026 -12.0102 -1.86375
-8.7601 -12.0331 -1.86463
-5.47372 -12.0582 -1.86563
-1.86608 -12.0697 -1.8661
1.86611 -12.0697 -1.86608
5.47368 -12.0582 -1.86566
8.76009 -12.0331 -1.86464
11.2025 -12.0102 -1.86378
12.134 -12.134 -1.86296
-12.0102 -11.2026 -1.86379
-11.1227 -11.1227 -1.86334
-8.73915 -11.106 -1.86375
-5.46796 -11.1024 -1.86459
-1.86499 -11.1024 -1.865
1.86502 -11.1024 -1.86499
5.46801 -11.1024 -1.86461
8.73918 -11.106 -1.86379
11.1227 -11.1227 -1.86333
12.0102 -11.2025 -1.86378
-12.0331 -8.76011 -1.86463
-11.106 -8.73916 -1.8638
-8.733 -8.73302 -1.86428
-5.46788 -8.73143 -1.86495
-1.86539 -8.73113 -1.86543
1.86539 -8.73116 -1.86542
5.46789 -8.73141 -1.86495
8.73295 -8.73302 -1.8643
11.1059 -8.73915 -1.86378
12.0331 -8.76011 -1.86461
-12.0582 -5.47374 -1.86562
-11.1024 -5.46798 -1.86456
-8.73143 -5.4679 -1.86499
-5.46908 -5.46905 -1.86578
-1.86619 -5.46971 -1.86617
1.86616 -5.46973 -1.86617
5.46905 -5.46906 -1.86581
8.73146 -5.46792 -1.86495
11.1025 -5.46796 -1.86456
12.0582 -5.47372 -1.86563
-12.0697 -1.86606 -1.86607
-11.1024 -1.86498 -1.86502
-8.73113 -1.86541 -1.86541
-5.46969 -1.86617 -1.8662
-1.86657 -1.86657 -1.86661
1.86659 -1.86661 -1.86663
5.46968 -1.86617 -1.86614
8.73109 -1.86541 -1.86544
11.1023 -1.86498 -1.86501
12.0697 -1.86609 -1.86608
-12.0697 1.86606 -1.86608
-11.1024 1.86502 -1.86499
-8.73112 1.86539 -1.8654
-5.46969 1.86617 -1.86618
-1.86656 1.86658 -1.86652
1.86658 1.86655 -1.86651
5.46969 1.86617 -1.86618
8.73107 1.86538 -1.86541
11.1023 1.86503 -1.865
12.0697 1.86609 -1.86608
-12.0582 5.47372 -1.86563
-11.1024 5.468 -1.86462
-8.73142 5.46784 -1.86498
-5.46909 5.46906 -1.86577
-1.86618 5.46964 -1.86623
1.86615 5.46964 -1.86621
5.46903 5.46908 -1.86575
8.73146 5.46784 -1.86501
11.1024 5.46799 -1.86465
12.0582 5.47369 -1.86566
-12.0331 8.76003 -1.86468
-11.106 8.73914 -1.86381
-8.733 8.73296 -1.8643
-5.46788 8.73146 -1.865
-1.86538 8.7311 -1.8654
1.86539 8.73109 -1.86539
5.46789 8.73146 -1.86507
8.73295 8.73294 -1.86428
11.106 8.73917 -1.8638
12.0331 8.76004 -1.86469
-12.0102 11.2026 -1.86377
-11.1227 11.1227 -1.86338
-8.73915 11.106 -1.86382
-5.46796 11.1025 -1.86462
-1.86499 11.1023 -1.86504
1.86502 11.1023 -1.86502
5.46799 11.1025 -1.86461
8.73916 11.1059 -1.86382
11.1227 11.1227 -1.86338
12.0102 11.2026 -1.86377
-12.134 12.134 -1.86298
-11.2025 12.0102 -1.86378
-8.7601 12.0331 -1.86471
-5.47371 12.0582 -1.86565
-1.86609 12.0697 -1.86611
1.8661 12.0696 -1.8661
5.47371 12.0583 -1.86565
8.76008 12.0331 -1.86468
11.2025 12.0102 -1.86377
12.134 12.134 -1.86299
-12.134 -12.134 1.8629
-11.2026 -12.0102 1.86369
-8.7601 -12.0331 1.86461
-5.47372 -12.0582 1.86559
-1.86608 -12.0697 1.86608
1.86609 -12.0696 1.86609
5.47368 -12.0582 1.86558
8.76007 -12.0331 1.86463
11.2026 -12.0102 1.86372
12.1339 -12.134 1.86291
-12.0102 -11.2025 1.86374
-11.1227 -11.1227 1.86331
-8.73917 -11.106 1.86379
-5.46797 -11.1024 1.86451
-1.865 -11.1024 1.86498
1.86502 -11.1024 1.86498
5.46801 -11.1025 1.86453
8.73917 -11.106 1.86383
11.1227 -11.1227 1.86333
12.0102 -11.2025 1.8637
-12.0331 -8.7601 1.86461
-11.106 -8.73916 1.86382
-8.73301 -8.73301 1.86415
-5.46791 -8.73142 1.86502
-1.86539 -8.73113 1.86538
1.86542 -8.73106 1.86538
5.46787 -8.73143 1.86504
8.73298 -8.73299 1.86415
11.106 -8.73917 1.8638
12.0331 -8.76011 1.86459
-12.0582 -5.47372 1.86554
-11.1024 -5.46797 1.86451
-8.73141 -5.46787 1.865
-5.46907 -5.46906 1.86565
-1.86619 -5.46968 1.8662
1.86617 -5.46965 1.86619
5.46902 -5.4691 1.86568
8.73145 -5.46786 1.86501
11.1024 -5.46797 1.8645
12.0582 -5.47372 1.86557
-12.0697 -1.86606 1.86606
-11.1024 -1.865 1.86496
-8.73112 -1.86539 1.86536
-5.46969 -1.8662 1.86615
-1.86657 -1.86659 1.86656
1.86658 -1.86649 1.86651
5.46968 -1.86621 1.86618
8.73111 -1.8654 1.86533
11.1024 -1.86501 1.86495
12.0697 -1.86606 1.86607
-12.0697 1.86609 1.86609
-11.1024 1.86501 1.86498
-8.73111 1.86542 1.86536
-5.46967 1.86615 1.8662
-1.86657 1.86659 1.86662
1.8666 1.86664 1.86665
5.46971 1.86611 1.86615
8.73115 1.86546 1.86541
11.1023 1.865 1.86499
12.0697 1.8661 1.86609
-12.0582 5.47373 1.86553
-11.1024 5.468 1.8645
-8.73142 5.46789 1.86502
-5.46908 5.46903 1.86573
-1.86618 5.46967 1.86614
1.86616 5.46974 1.86613
5.46903 5.46899 1.86579
8.73143 5.46792 1.86497
11.1024 5.468 1.86449
12.0582 5.47373 1.86557
-12.0331 8.76006 1.86454
-11.106 8.73915 1.86378
-8.733 8.73298 1.86415
-5.4679 8.73145 1.86497
-1.86539 8.73108 1.86538
1.86541 8.73121 1.86539
5.46786 8.73136 1.86492
8.73294 8.73305 1.8642
11.106 8.73914 1.86381
12.0331 8.76006 1.86456
-12.0102 11.2026 1.86368
-11.1227 11.1227 1.86328
-8.73917 11.106 1.86379
-5.46797 11.1024 1.86449
-1.865 11.1024 1.86497
1.86501 11.1024 1.86497
5.46799 11.1023 1.86453
8.73914 11.106 1.86373
11.1227 11.1227 1.86325
12.0102 11.2026 1.86367
-12.134 12.134 1.86288
-11.2025 12.0102 1.8637
-8.76011 12.0331 1.86457
-5.4737 12.0582 1.86558
-1.8661 12.0697 1.86608
1.8661 12.0698 1.86608
5.4737 12.0581 1.86556
8.76007 12.0332 1.86455
11.2025 12.0102 1.86367
12.1339 12.134 1.8629
-12.1225 -12.1225 5.46765
-11.2019 -11.9977 5.46904
-8.75968 -12.0211 5.47072
-5.47273 -12.0465 5.47267
-1.86558 -12.0582 5.4737
1.86561 -12.0582 5.4737
5.47276 -12.0465 5.47267
8.75968 -12.0211 5.47075
11.2019 -11.9977 5.46903
12.1225 -12.1225 5.46766
-11.9977 -11.2019 5.46905
-11.1225 -11.1225 5.46583
-8.73937 -11.1058 5.46608
-5.46729 -11.1023 5.46724
-1.86457 -11.1024 5.46794
1.86454 -11.1024 5.46793
5.46727 -11.1023 5.46723
8.73935 -11.1058 5.46609
11.1225 -11.1225 5.46583
11.9976 -11.2019 5.46905
-12.0211 -8.7597 5.47076
-11.1058 -8.73939 5.46607
-8.73326 -8.73327 5.466
-5.46721 -8.73167 5.46729
-1.86501 -8.7314 5.46784
1.86498 -8.73145 5.46784
5.46724 -8.73166 5.46727
8.73326 -8.73328 5.46596
11.1057 -8.73938 5.46609
12.0211 -8.75969 5.47075
-12.0465 -5.47275 5.47267
-11.1023 -5.46731 5.4673
-8.73166 -5.46722 5.46727
-5.46835 -5.46835 5.46827
-1.86576 -5.46906 5.46909
1.86579 -5.46908 5.46909
5.46843 -5.46835 5.46833
8.73171 -5.46722 5.4673
11.1024 -5.4673 5.46725
12.0466 -5.47274 5.47268
-12.0582 -1.86559 5.47369
-11.1024 -1.86455 5.46789
-8.73141 -1.865 5.46783
-5.46907 -1.86573 5.46909
-1.86618 -1.86618 5.46965
1.86616 -1.86622 5.46962
5.46906 -1.86572 5.46909
8.73144 -1.865 5.4678
11.1024 -1.86456 5.46791
12.0582 -1.86561 5.47369
-12.0582 1.86559 5.47369
-11.1024 1.86452 5.46792
-8.73141 1.86498 5.46782
-5.46908 1.86576 5.46904
-1.86619 1.86616 5.46972
1.86615 1.86612 5.46972
5.46901 1.86579 5.46902
8.73141 1.86498 5.46781
11.1024 1.86453 5.46797
12.0582 1.86557 5.47369
-12.0465 5.47272 5.47272
-11.1023 5.46727 5.46723
-8.73164 5.46721 5.46727
-5.46834 5.46842 5.46837
-1.86574 5.46907 5.469
1.86582 5.46901 5.46906
5.46842 5.46847 5.46839
8.73174 5.46721 5.46726
11.1024 5.4673 5.46721
12.0466 5.47278 5.47269
-12.0211 8.75967 5.47074
-11.1058 8.73931 5.46606
-8.73327 8.73322 5.46598
-5.46722 8.73169 5.46724
-1.86501 8.73145 5.46782
1.86497 8.73141 5.46785
5.46725 8.73173 5.46719
8.73325 8.7332 5.466
11.1058 8.73933 5.46607
12.0211 8.75973 5.47075
-11.9977 11.202 5.46908
-11.1225 11.1225 5.46581
-8.73936 11.1058 5.46607
-5.4673 11.1024 5.46724
-1.86456 11.1024 5.46793
1.86456 11.1024 5.46792
5.46731 11.1024 5.46725
8.73933 11.1057 5.46607
11.1225 11.1225 5.46586
11.9977 11.2019 5.46908
-12.1225 12.1225 5.46766
-11.2019 11.9976 5.46907
-8.75968 12.0211 5.47073
-5.47274 12.0466 5.47268
-1.86559 12.0582 5.47367
1.86562 12.0582 5.47367
5.47277 12.0466 5.47268
8.75974 12.021 5.47073
11.202 11.9977 5.46907
12.1225 12.1225 5.46765
-12.0965 -12.0965 8.76594
-11.203 -11.9698 8.76149
-8.75942 -11.9946 8.75934
-5.47077 -12.0211 8.75963
-1.8646 -12.0331 8.76005
1.86464 -12.0331 8.7601
5.47077 -12.0211 8.75964