# vtk DataFile Version 3.0 
Lennard-Jones particle simulation 
ASCII 
DATASET UNSTRUCTURED_GRID 
POINTS 1000 float 
-1.64316 -1.64316 -1.64316
-0.273821 -1.63821 -1.63821
1.05266 -1.63822 -1.63822
2.4118 -1.63843 -1.63843
3.8018 -1.63856 -1.63856
5.1982 -1.63856 -1.63856
6.5882 -1.63843 -1.63843
7.94734 -1.63821 -1.63822
9.27382 -1.63821 -1.63821
10.6432 -1.64316 -1.64316
-1.63821 -0.27382 -1.63821
-0.272573 -0.272573 -1.6306
1.05282 -0.273314 -1.62991
2.41165 -0.27402 -1.62985
3.80172 -0.274369 -1.62988
5.19828 -0.274369 -1.62988
6.58835 -0.274021 -1.62985
7.94718 -0.273314 -1.6299
9.27257 -0.272572 -1.6306
10.6382 -0.273821 -1.63822
-1.63821 1.05266 -1.63822
-0.273315 1.05282 -1.6299
1.05204 1.05204 -1.629
2.4111 1.05137 -1.62885
3.80154 1.05104 -1.62885
5.19846 1.05104 -1.62885
6.5889 1.05137 -1.62885
7.94796 1.05204 -1.629
9.27332 1.05282 -1.62991
10.6382 1.05266 -1.63822
-1.63843 2.4118 -1.63843
-0.274021 2.41165 -1.62985
1.05137 2.4111 -1.62885
2.41064 2.41064 -1.62865
3.80138 2.4104 -1.62864
5.19862 2.4104 -1.62864
6.58936 2.41064 -1.62865
7.94863 2.4111 -1.62885
9.27402 2.41165 -1.62985
10.6384 2.4118 -1.63843
-1.63856 3.8018 -1.63856
-0.274369 3.80172 -1.62988
1.05104 3.80154 -1.62885
2.4104 3.80138 -1.62864
3.80129 3.80129 -1.62861
5.19871 3.80129 -1.62861
6.5896 3.80138 -1.62864
7.94896 3.80154 -1.62886
9.27437 3.80172 -1.62988
10.6386 3.8018 -1.63856
-1.63856 5.1982 -1.63856
-0.274368 5.19828 -1.62988
1.05104 5.19846 -1.62885
2.4104 5.19862 -1.62863
3.80129 5.19871 -1.62861
5.19871 5.19871 -1.62861
6.5896 5.19862 -1.62864
7.94896 5.19846 -1.62885
9.27437 5.19828 -1.62988
10.6386 5.1982 -1.63856
-1.63843 6.5882 -1.63843
-0.274023 6.58835 -1.62985
1.05137 6.5889 -1.62885
2.41064 6.58936 -1.62865
3.80137 6.5896 -1.62864
5.19862 6.5896 -1.62864
6.58936 6.58936 -1.62865
7.94863 6.5889 -1.62885
9.27402 6.58835 -1.62985
10.6384 6.5882 -1.63843
-1.63822 7.94734 -1.63821
-0.273315 7.94718 -1.6299
1.05204 7.94796 -1.629
2.4111 7.94863 -1.62885
3.80154 7.94896 -1.62885
5.19846 7.94896 -1.62885
6.5889 7.94863 -1.62885
7.94796 7.94796 -1.629
9.27332 7.94718 -1.62991
10.6382 7.94734 -1.63822
-1.63821 9.27382 -1.63822
-0.272573 9.27257 -1.6306
1.05282 9.27332 -1.62991
2.41165 9.27402 -1.62985
3.80172 9.27437 -1.62988
5.19828 9.27437 -1.62988
6.58835 9.27402 -1.62985
7.94718 9.27332 -1.62991
9.27257 9.27257 -1.6306
10.6382 9.27382 -1.63822
-1.64316 10.6432 -1.64316
-0.273822 10.6382 -1.63822
1.05266 10.6382 -1.63822
2.4118 10.6384 -1.63843
3.8018 10.6386 -1.63856
5.1982 10.6386 -1.63856
6.5882 10.6384 -1.63843
7.94734 10.6382 -1.63822
9.27382 10.6382 -1.63822
10.6432 10.6432 -1.64316
-1.63822 -1.63821 -0.273822
-0.272573 -1.6306 -0.272573
1.05282 -1.6299 -0.273316
2.41165 -1.62985 -0.274023
3.80172 -1.62988 -0.27437
5.19827 -1.62988 -0.274369
6.58835 -1.62985 -0.274023
7.94718 -1.6299 -0.273315
9.27257 -1.6306 -0.272574
10.6382 -1.63822 -0.273822
-1.6306 -0.272574 -0.272574
-0.270004 -0.270004 -0.270004
1.05374 -0.27042 -0.27042
2.41191 -0.270995 -0.270996
3.80177 -0.271298 -0.271297
5.19823 -0.271298 -0.271297
6.5881 -0.270996 -0.270996
7.94626 -0.27042 -0.270418
9.27 -0.270004 -0.270004
10.6306 -0.272573 -0.272574
-1.62991 1.05282 -0.273315
-0.270421 1.05374 -0.270418
1.05314 1.05314 -0.270737
2.41145 1.05253 -0.271267
3.80162 1.05223 -0.271559
5.19838 1.05223 -0.271559
6.58855 1.05253 -0.271267
7.94686 1.05314 -0.270739
9.27042 1.05374 -0.27042
10.6299 1.05282 -0.273317
-1.62985 2.41165 -0.274022
-0.270994 2.41191 -0.270996
1.05254 2.41145 -0.271271
2.41102 2.41102 -0.271781
3.80147 2.4108 -0.272064
5.19853 2.4108 -0.272065
6.58898 2.41102 -0.271786
7.94747 2.41145 -0.271268
9.271 2.41191 -0.270995
10.6298 2.41165 -0.274021
-1.62988 3.80172 -0.27437
-0.271297 3.80177 -0.271298
1.05223 3.80162 -0.271559
2.4108 3.80146 -0.272069
3.80138 3.80138 -0.27234
5.19862 3.80138 -0.272342
6.5892 3.80146 -0.272063
7.94777 3.80162 -0.271561
9.2713 3.80177 -0.271298
10.6299 3.80172 -0.274369
-1.62989 5.19828 -0.274368
-0.2713 5.19823 -0.271296
1.05223 5.19838 -0.271559
2.4108 5.19854 -0.27206
3.80138 5.19862 -0.272335
5.19862 5.19862 -0.272334
6.5892 5.19854 -0.272064
7.94777 5.19838 -0.271558
9.2713 5.19823 -0.271297
10.6299 5.19828 -0.274368
-1.62985 6.58835 -0.274024
-0.270995 6.5881 -0.270999
1.05253 6.58855 -0.27127
2.41102 6.58898 -0.271784
3.80146 6.5892 -0.272066
5.19854 6.5892 -0.272067
6.58898 6.58898 -0.271782
7.94747 6.58855 -0.271271
9.271 6.58809 -0.270998
10.6299 6.58835 -0.274024
-1.62991 7.94718 -0.273317
-0.27042 7.94626 -0.270419
1.05314 7.94686 -0.270739
2.41145 7.94747 -0.271272
3.80162 7.94777 -0.271558
5.19838 7.94777 -0.271559
6.58855 7.94747 -0.271274
7.94686 7.94686 -0.270737
9.27042 7.94626 -0.27042
10.6299 7.94718 -0.273317
-1.6306 9.27257 -0.272575
-0.270004 9.27001 -0.270006
1.05374 9.27042 -0.27042
2.41191 9.271 -0.270998
3.80177 9.2713 -0.271299
5.19823 9.2713 -0.271298
6.5881 9.271 -0.270997
7.94626 9.27042 -0.270422
9.27 9.27001 -0.270006
10.6306 9.27257 -0.272575
-1.63822 10.6382 -0.273823
-0.272574 10.6306 -0.272574
1.05282 10.6299 -0.273318
2.41165 10.6299 -0.274023
3.80172 10.6299 -0.27437
5.19827 10.6299 -0.27437
6.58835 10.6299 -0.274023
7.94718 10.6299 -0.273317
9.27257 10.6306 -0.272575
10.6382 10.6382 -0.273824
-1.63822 -1.63822 1.05266
-0.273317 -1.62991 1.05282
1.05204 -1.629 1.05204
2.4111 -1.62885 1.05137
3.80154 -1.62886 1.05104
5.19846 -1.62886 1.05104
6.5889 -1.62885 1.05137
7.94796 -1.629 1.05204
9.27332 -1.62991 1.05282
10.6382 -1.63822 1.05266
-1.62991 -0.273316 1.05282
-0.270421 -0.270421 1.05374
1.05314 -0.270736 1.05314
2.41145 -0.271272 1.05253
3.80162 -0.27156 1.05223
5.19838 -0.27156 1.05223
6.58855 -0.271269 1.05253
7.94686 -0.270738 1.05314
9.27042 -0.27042 1.05374
10.6299 -0.273317 1.05282
-1.629 1.05204 1.05204
-0.270736 1.05314 1.05314
1.05259 1.05259 1.05259
2.41102 1.052 1.05201
3.80147 1.05171 1.05171
5.19853 1.05171 1.05171
6.58898 1.05201 1.05201
7.94741 1.05259 1.05258
9.27074 1.05314 1.05314
10.629 1.05204 1.05204
-1.62885 2.4111 1.05137
-0.271272 2.41145 1.05253
1.052 2.41102 1.052
2.4106 2.4106 1.05143
3.80132 2.41039 1.05113
5.19868 2.41039 1.05113
6.5894 2.41061 1.05143
7.94799 2.41102 1.05201
9.27127 2.41145 1.05253
10.6288 2.4111 1.05137
-1.62886 3.80154 1.05104
-0.271561 3.80162 1.05223
1.0517 3.80147 1.05171
2.41039 3.80132 1.05113
3.80124 3.80124 1.05084
5.19876 3.80124 1.05084
6.58961 3.80132 1.05113
7.94829 3.80146 1.0517
9.27156 3.80162 1.05223
10.6289 3.80154 1.05104
-1.62886 5.19846 1.05104
-0.271562 5.19838 1.05223
1.05171 5.19853 1.05171
2.41039 5.19868 1.05114
3.80124 5.19876 1.05085
5.19876 5.19876 1.05085
6.58961 5.19868 1.05113
7.94829 5.19853 1.05171
9.27156 5.19838 1.05223
10.6289 5.19846 1.05104
-1.62884 6.5889 1.05137
-0.271267 6.58855 1.05253
1.052 6.58897 1.05201
2.4106 6.5894 1.05143
3.80132 6.58961 1.05113
5.19868 6.58961 1.05113
6.58939 6.5894 1.05143
7.94799 6.58897 1.052
9.27126 6.58855 1.05253
10.6288 6.5889 1.05137
-1.629 7.94796 1.05204
-0.270733 7.94686 1.05314
1.05259 7.94741 1.05258
2.41102 7.948 1.052
3.80147 7.94829 1.05171
5.19853 7.94829 1.05171
6.58898 7.948 1.052
7.94741 7.94741 1.05259
9.27074 7.94686 1.05314
10.629 7.94796 1.05204
-1.6299 9.27332 1.05282
-0.270418 9.27042 1.05374
1.05314 9.27073 1.05314
2.41145 9.27127 1.05253
3.80162 9.27156 1.05223
5.19838 9.27156 1.05223
6.58855 9.27127 1.05253
7.94686 9.27073 1.05314
9.27042 9.27042 1.05374
10.6299 9.27332 1.05282
-1.63821 10.6382 1.05266
-0.273313 10.6299 1.05282
1.05204 10.629 1.05204
2.4111 10.6288 1.05137
3.80154 10.6289 1.05104
5.19846 10.6289 1.05104
6.5889 10.6288 1.05137
7.94796 10.629 1.05204
9.27332 10.6299 1.05282
10.6382 10.6382 1.05266
-1.63843 -1.63843 2.4118
-0.274018 -1.62984 2.41165
1.05137 -1.62885 2.4111
2.41064 -1.62865 2.41063
3.80138 -1.62864 2.4104
5.19862 -1.62864 2.4104
6.58936 -1.62865 2.41063
7.94863 -1.62884 2.4111
9.27402 -1.62984 2.41165
10.6384 -1.63843 2.4118
-1.62984 -0.274017 2.41165
-0.270992 -0.270992 2.41191
1.05254 -0.271268 2.41145
2.41102 -0.271779 2.41102
3.80147 -0.272065 2.4108
5.19853 -0.272064 2.4108
6.58898 -0.27178 2.41102
7.94746 -0.271267 2.41145
9.27099 -0.270993 2.41191
10.6298 -0.274018 2.41165
-1.62885 1.05137 2.4111
-0.271269 1.05254 2.41145
1.052 1.05201 2.41102
2.4106 1.05143 2.41061
3.80132 1.05113 2.41039
5.19868 1.05113 2.41039
6.5894 1.05143 2.41061
7.948 1.05201 2.41102
9.27127 1.05254 2.41145
10.6288 1.05137 2.4111
-1.62865 2.41064 2.41064
-0.27178 2.41102 2.41102
1.05143 2.41061 2.4106
2.41019 2.41019 2.41019
3.80118 2.40997 2.40997
5.19883 2.40997 2.40997
6.58981 2.41019 2.41019
7.94857 2.41061 2.41061
9.27178 2.41102 2.41102
10.6286 2.41064 2.41064
-1.62864 3.80138 2.4104
-0.272065 3.80147 2.4108
1.05113 3.80132 2.41038
2.40997 3.80118 2.40997
3.80109 3.80109 2.40976
5.1989 3.8011 2.40976
6.59002 3.80118 2.40998
7.94886 3.80132 2.41038
9.27207 3.80146 2.4108
10.6286 3.80138 2.4104
-1.62864 5.19862 2.4104
-0.272064 5.19853 2.4108
1.05113 5.19868 2.41039
2.40997 5.19883 2.40998
3.80109 5.1989 2.40976
5.1989 5.1989 2.40976
6.59002 5.19883 2.40997
7.94886 5.19868 2.41039
9.27206 5.19853 2.4108
10.6286 5.19862 2.4104
-1.62865 6.58936 2.41063
-0.27178 6.58898 2.41102
1.05143 6.5894 2.4106
2.41019 6.58981 2.41019
3.80118 6.59002 2.40997
5.19883 6.59002 2.40997
6.58981 6.58981 2.41019
7.94857 6.5894 2.4106
9.27179 6.58898 2.41102
10.6287 6.58936 2.41063
-1.62885 7.94863 2.4111
-0.271269 7.94746 2.41145
1.052 7.94799 2.41102
2.4106 7.94857 2.4106
3.80132 7.94886 2.41039
5.19868 7.94886 2.41039
6.5894 7.94857 2.4106
7.94799 7.948 2.41102
9.27127 7.94746 2.41145
10.6288 7.94863 2.4111
-1.62984 9.27402 2.41164
-0.270993 9.27099 2.4119
1.05254 9.27127 2.41145
2.41102 9.27178 2.41102
3.80147 9.27207 2.4108
5.19853 9.27207 2.4108
6.58898 9.27178 2.41102
7.94746 9.27127 2.41145
9.27099 9.27099 2.4119
10.6298 9.27402 2.41164
-1.63843 10.6384 2.4118
-0.274019 10.6298 2.41164
1.05137 10.6288 2.4111
2.41064 10.6287 2.41063
3.80138 10.6286 2.4104
5.19862 10.6286 2.4104
6.58936 10.6287 2.41063
[...]
POINT_DATA 1000
SCALARS mass float 
LOOKUP_TABLE default 
1
1
1
1
1
1
1
1
1
1
1
1
1
1
1
1
1
1
1
1
1
1
1
1
1
1
1
1
1
1
1
1
1
1
1
1
1
1
1
1
1
1
1
1
1
1
1
1
1
1
1
1
1
1
1
1
1
1
1
1
1
1
1
1
1
1
1
1
1
1
1
1
1
1
1
1
1
1
1
1
1
1
1
1
1
1
1
1
1
1
1
1
1
1
1
1
1
1
1
1
1
1
1
1
1
1
1
1
1
1
1
1
1
1
1
1
1
1
1
1
1
1
1
1
1
1
1
1
1
1
1
1
1
1
1
1
1
1
1
1
1
1
1
1
1
1
1
1
1
1
1
1
1
1
1
1
1
1
1
1
1
1
1
1
1
1
1
1
1
1
1
1
1
1
1
1
1
1
1
1
1
1
1
1
1
1
1
1
1
1
1
1
1
1
1
1
1
1
1
1
1
1
1
1
1
1
1
1
1
1
1
1
1
1
1
1
1
1
1
1
1
1
1
1
1
1
1
1
1
1
1
1
1
1
1
1
1
1
1
1
1
1
1
1
1
1
1
1
1
1
1
1
1
1
1
1
1
1
1
1
1
1
1
1
1
1
1
1
1
1
1
1
1
1
1
1
1
1
1
1
1
1
1
1
1
1
1
1
1
1
1
1
1
1
1
1
1
1
1
1
1
1
1
1
1
1
1
1
1
1
1
1
1
1
1
1
1
1
1
1
1
1
1
1
1
1
1
1
1
1
1
1
1
1
1
1
1
1
1
1
1
1
1
1
1
1
1
1
1
1
1
1
1
1
1
1
1
1
1
1
1
1
1
1
1
1
1
1
1
1
1
1
1
1
1
1
1
1
1
1
1
1
1
1
1
1
1
1
1
1
1
1
1
1
1
1
1
1
1
1
1
1
1
1
1
1
1
1
1
1
1
1
1
1
1
1
1
1
1
1
1
1
1
1
1
1
1
1
1
1
1
1
1
1
1
1
1
1
1
1
1
1
1
1
1
1
1
1
1
1
1
1
1
1
1
1
1
1
1
1
1
1
1
1
1
1
1
1
1
1
1
1
1
1
1
1
1
1
1
1
1
1
1
1
1
1
1
1
1
1
1
1
1
1
1
1
1
1
1
1
1
1
1
1
1
1
1
1
1
1
1
1
1
1
1
1
1
1
1
1
1
1
1
1
1
1
1
1
1
1
1
1
1
1
1
1
1
1
1
1
1
1
1
1
1
1
1
1
1
1
1
1
1
1
1
1
1
1
1
1
1
1
1
1
1
1
1
1
1
1
1
1
1
1
1
1
1
1
1
1
1
1
1
1
1
1
1
1
1
1
1
1
1
1
1
1
1
1
1
1
1
1
1
1
1
1
1
1
1
1
1
1
1
1
1
1
1
1
1
1
1
1
1
1
1
1
1
1
1
1
1
1
1
1
1
1
1
1
1
1
1
1
1
1
1
1
1
1
1
1
1
1
1
1
1
1
1
1
1
1
1
1
1
1
1
1
1
1
1
1
1
1
1
1
1
1
1
1
1
1
1
1
1
1
1
1
1
1
1
1
1
1
1
1
1
1
1
1
1
1
1
1
1
1
1
1
1
1
1
1
1
1
1
1
1
1
1
1
1
1
1
1
1
1
1
1
1
1
1
1
1
1
1
1
1
1
1
1
1
1
1
1
1
1
1
1
1
1
1
1
1
1
1
1
1
1
1
1
1
1
1
1
1
1
1
1
1
1
1
1
1
1
1
1
1
1
1
1
1
1
1
1
1
1
1
1
1
1
1
1
1
1
1
1
1
1
1
1
1
1
1
1
1
1
1
1
1
1
1
1
1
1
1
1
1
1
1
1
1
1
1
1
1
1
1
1
1
1
1
1
1
1
1
1
1
1
1
1
1
1
1
1
1
1
1
1
1
1
1
1
1
1
1
1
1
1
1
1
1
1
1
1
1
1
1
1
1
1
1
1
1
1
1
1
1
1
1
1
1
1
1
1
1
1
1
1
1
1
1
1
1
1
1
1
1
1
1
1
1
1
1
1
1
1
1
1
1
1
1
1
1
1
1
1
1
1
1
1
1
1
1
1
1
1
1
1
1
1
1
1
1
1
1
1
1
1
1
1
1
1
1
1
1
1
1
1
1
1
1
1
1
1
1
1
1
1
1
1
1
1
1
1
1
1
1
1
1
1
1
1
1
1
1
1
1
1
1
1
1
1
1
1
1
1
1
1
1
1
1
1
1
1
1
1
1
1
1
1
1
1
VECTORS velocity float 
-12.3057 -12.3057 -12.3057
-11.1543 -12.2428 -12.2429
-8.84679 -12.2399 -12.2399
-5.49821 -12.2439 -12.2439
-1.86437 -12.247 -12.247
1.86439 -12.247 -12.247
5.49826 -12.2439 -12.2439
8.84679 -12.2399 -12.2399
11.1543 -12.2429 -12.2429
12.3057 -12.3057 -12.3057
-12.2429 -11.1543 -12.2429
-11.1288 -11.1288 -12.1565
-8.83658 -11.131 -12.1477
-5.49522 -11.1349 -12.1498
-1.86386 -11.137 -12.1525
1.86381 -11.137 -12.1525
5.49523 -11.1349 -12.1498
8.83657 -11.1311 -12.1477
11.1288 -11.1288 -12.1565
12.2428 -11.1544 -12.2429
-12.2399 -8.8468 -12.2399
-11.1311 -8.83658 -12.1477
-8.84084 -8.84085 -12.1372
-5.49876 -8.8452 -12.1386
-1.86518 -8.84703 -12.1412
1.86522 -8.84703 -12.1412
5.49878 -8.84519 -12.1386
8.84082 -8.84084 -12.1372
11.1311 -8.83655 -12.1477
12.2399 -8.84677 -12.2399
-12.2439 -5.49821 -12.2439
-11.1349 -5.49523 -12.1498
-8.8452 -5.49874 -12.1386
-5.50223 -5.50223 -12.1398
-1.86659 -5.50378 -12.1423
1.86659 -5.50378 -12.1423
5.50224 -5.50223 -12.1398
8.84517 -5.49875 -12.1386
11.1349 -5.49521 -12.1498
12.244 -5.49822 -12.2439
-12.247 -1.86433 -12.247
-11.137 -1.86385 -12.1525
-8.84706 -1.86518 -12.1412
-5.5038 -1.86659 -12.1423
-1.86724 -1.86722 -12.1446
1.86724 -1.86723 -12.1447
5.50375 -1.86658 -12.1423
8.84701 -1.86518 -12.1413
11.137 -1.86386 -12.1525
12.247 -1.86436 -12.247
-12.247 1.86434 -12.247
-11.137 1.86386 -12.1524
-8.84705 1.8652 -12.1412
-5.50379 1.86658 -12.1422
-1.8672 1.8672 -12.1446
1.86723 1.86721 -12.1446
5.5038 1.86658 -12.1423
8.84706 1.86521 -12.1412
11.1371 1.86386 -12.1525
12.247 1.86436 -12.247
-12.2439 5.49827 -12.244
-11.1349 5.49523 -12.1498
-8.84522 5.49882 -12.1386
-5.50224 5.5022 -12.1398
-1.8666 5.50377 -12.1423
1.86655 5.50376 -12.1423
5.5022 5.5022 -12.1398
8.8452 5.49875 -12.1387
11.1349 5.4952 -12.1498
12.2439 5.49823 -12.2439
-12.2399 8.84677 -12.2399
-11.1311 8.83656 -12.1477
-8.84085 8.84085 -12.1372
-5.49876 8.8452 -12.1387
-1.86517 8.84706 -12.1412
1.86522 8.84706 -12.1412
5.49877 8.84522 -12.1387
8.84082 8.84083 -12.1372
11.1311 8.8366 -12.1477
12.2399 8.84678 -12.2399
-12.2429 11.1544 -12.2429
-11.1288 11.1288 -12.1565
-8.83658 11.1311 -12.1477
-5.49522 11.1349 -12.1498
-1.86383 11.137 -12.1525
1.86382 11.137 -12.1525
5.49525 11.1349 -12.1498
8.83656 11.1311 -12.1477
11.1288 11.1289 -12.1565
12.2429 11.1544 -12.2429
-12.3057 12.3057 -12.3057
-11.1544 12.2428 -12.2429
-8.84679 12.2399 -12.2399
-5.49822 12.2439 -12.2439
-1.86437 12.247 -12.247
1.86439 12.247 -12.247
5.49824 12.2439 -12.2439
8.84678 12.2399 -12.2399
11.1544 12.2428 -12.2429
12.3057 12.3057 -12.3058
-12.2429 -12.2429 -11.1544
-11.1288 -12.1565 -11.1288
-8.83659 -12.1477 -11.1311
-5.49521 -12.1498 -11.1349
-1.86385 -12.1525 -11.137
1.8638 -12.1525 -11.137
5.49526 -12.1498 -11.1349
8.83655 -12.1477 -11.1311
11.1288 -12.1565 -11.1289
12.2428 -12.2429 -11.1544
-12.1565 -11.1288 -11.1288
-11.0888 -11.0889 -11.0889
-8.81709 -11.0875 -11.0875
-5.48735 -11.0898 -11.0898
-1.86196 -11.0915 -11.0915
1.86198 -11.0915 -11.0915
5.4873 -11.0898 -11.0898
8.81715 -11.0875 -11.0875
11.0889 -11.0889 -11.0889
12.1565 -11.1288 -11.1288
-12.1477 -8.83656 -11.1311
-11.0875 -8.81709 -11.0875
-8.8192 -8.81918 -11.0851
-5.48972 -8.82267 -11.0869
-1.863 -8.82422 -11.0885
1.86298 -8.82421 -11.0884
5.48973 -8.82268 -11.0869
8.81921 -8.81919 -11.0851
11.0875 -8.8171 -11.0875
12.1477 -8.83658 -11.1311
-12.1498 -5.49522 -11.1349
-11.0898 -5.48732 -11.0898
-8.82268 -5.48972 -11.087
-5.49279 -5.49278 -11.0885
-1.86421 -5.49414 -11.09
1.86423 -5.49414 -11.09
5.49281 -5.49278 -11.0886
8.82268 -5.48971 -11.0869
11.0899 -5.48733 -11.0898
12.1498 -5.49522 -11.1349
-12.1525 -1.86385 -11.137
-11.0915 -1.86196 -11.0915
-8.82421 -1.86299 -11.0884
-5.49414 -1.86427 -11.09
-1.86485 -1.86486 -11.0913
1.86487 -1.86483 -11.0913
5.4942 -1.86428 -11.09
8.82422 -1.86297 -11.0885
11.0915 -1.86195 -11.0915
12.1525 -1.86385 -11.137
-12.1525 1.86385 -11.137
-11.0915 1.86195 -11.0915
-8.82425 1.86297 -11.0885
-5.49415 1.86426 -11.0899
-1.86488 1.86488 -11.0913
1.86488 1.86486 -11.0912
5.49418 1.86426 -11.09
8.82422 1.86295 -11.0884
11.0915 1.86193 -11.0915
12.1525 1.86384 -11.137
-12.1498 5.49524 -11.1349
-11.0898 5.48735 -11.0899
-8.82269 5.4897 -11.0869
-5.4928 5.49278 -11.0886
-1.86423 5.49419 -11.09
1.86424 5.4942 -11.09
5.49281 5.49278 -11.0885
8.82269 5.48973 -11.087
11.0899 5.48734 -11.0899
12.1498 5.49525 -11.1349
-12.1477 8.83657 -11.1311
-11.0875 8.81713 -11.0875
-8.81919 8.81924 -11.0851
-5.48972 8.82271 -11.0869
-1.863 8.82423 -11.0884
1.86296 8.82423 -11.0885
5.48971 8.8227 -11.087
8.81923 8.81923 -11.0851
11.0875 8.81713 -11.0875
12.1476 8.83656 -11.1311
-12.1565 11.1288 -11.1289
-11.0889 11.0889 -11.0889
-8.8171 11.0875 -11.0875
-5.48736 11.0899 -11.0899
-1.86196 11.0915 -11.0915
1.86198 11.0915 -11.0915
5.4873 11.0899 -11.0898
8.81715 11.0875 -11.0875
11.0889 11.0889 -11.0889
12.1565 11.1288 -11.1289
-12.2429 12.2429 -11.1544
-11.1289 12.1565 -11.1289
-8.83659 12.1476 -11.1311
-5.49522 12.1498 -11.1349
-1.86386 12.1525 -11.137
1.86379 12.1525 -11.137
5.49526 12.1498 -11.1349
8.83656 12.1477 -11.1311
11.1288 12.1565 -11.1289
12.2428 12.2429 -11.1544
-12.2399 -12.2399 -8.84681
-11.1311 -12.1477 -8.83658
-8.84086 -12.1372 -8.84083
-5.49878 -12.1387 -8.84521
-1.86519 -12.1412 -8.84704
1.86523 -12.1412 -8.84704
5.49878 -12.1386 -8.8452
8.84085 -12.1372 -8.84083
11.1311 -12.1477 -8.83659
12.24 -12.2399 -8.8468
-12.1477 -11.1311 -8.83657
-11.0875 -11.0875 -8.8171
-8.8192 -11.0851 -8.81919
-5.48973 -11.087 -8.8227
-1.863 -11.0884 -8.82421
1.86298 -11.0884 -8.82421
5.48974 -11.0869 -8.82269
8.81924 -11.0851 -8.81919
11.0875 -11.0875 -8.81711
12.1477 -11.1311 -8.83659
-12.1372 -8.84085 -8.84084
-11.0851 -8.8192 -8.81919
-8.82065 -8.82064 -8.82067
-5.49182 -8.82386 -8.82382
-1.86392 -8.82528 -8.82529
1.8639 -8.82529 -8.82529
5.49181 -8.82384 -8.82381
8.82063 -8.82067 -8.82069
11.0851 -8.81919 -8.8192
12.1372 -8.84085 -8.84084
-12.1387 -5.49877 -8.8452
-11.087 -5.48973 -8.82267
-8.82387 -5.49182 -8.82382
-5.49473 -5.49471 -8.82689
-1.86515 -5.49606 -8.8283
1.86513 -5.49607 -8.82828
5.49474 -5.49469 -8.82695
8.82378 -5.49186 -8.8238
11.0869 -5.48973 -8.82268
12.1386 -5.49877 -8.84519
-12.1412 -1.8652 -8.84706
-11.0885 -1.86298 -8.82423
-8.82529 -1.86397 -8.8253
-5.49608 -1.86515 -8.82833
-1.86576 -1.86573 -8.82963
1.86573 -1.86575 -8.82968
5.49602 -1.86515 -8.82829
8.82524 -1.86398 -8.8253
11.0885 -1.863 -8.82424
12.1412 -1.86519 -8.84707
-12.1413 1.86521 -8.84705
-11.0885 1.86295 -8.82421
-8.82528 1.86392 -8.82531
-5.49606 1.86511 -8.82825
-1.86573 1.86574 -8.8296
1.86574 1.86573 -8.82957
5.49609 1.86517 -8.82831
8.82527 1.86387 -8.82529
11.0885 1.86298 -8.8242
12.1413 1.86518 -8.84705
-12.1386 5.49874 -8.84523
-11.0869 5.48973 -8.82269
-8.82383 5.49179 -8.82383
-5.49472 5.4947 -8.82692
-1.86517 5.49607 -8.82832
1.86513 5.49605 -8.82832
5.49472 5.49473 -8.82688
8.82375 5.4918 -8.82385
11.0869 5.48971 -8.8227
12.1385 5.49874 -8.84523
-12.1371 8.84085 -8.84087
-11.085 8.81924 -8.81919
-8.82063 8.82064 -8.82067
-5.49178 8.82381 -8.82385
-1.86391 8.82525 -8.82529
1.86391 8.82525 -8.82526
5.49182 8.82384 -8.82387
8.82062 8.82062 -8.82064
11.0851 8.81923 -8.81922
12.1372 8.84084 -8.84086
-12.1476 11.131 -8.8366
-11.0875 11.0875 -8.81712
-8.81918 11.0851 -8.8192
-5.4897 11.0869 -8.8227
-1.86299 11.0885 -8.82423
1.86295 11.0884 -8.82424
5.48974 11.0869 -8.82269
8.81923 11.085 -8.81922
11.0875 11.0875 -8.81711
12.1477 11.131 -8.83661
-12.2399 12.2399 -8.84681
-11.131 12.1477 -8.8366
-8.84083 12.1372 -8.84086
-5.49874 12.1386 -8.84522
-1.86519 12.1412 -8.84705
1.86522 12.1412 -8.84705
5.49877 12.1386 -8.84521
8.84083 12.1372 -8.84087
11.1311 12.1477 -8.8366
12.2399 12.2399 -8.84683
-12.2439 -12.2439 -5.49825
-11.1349 -12.1497 -5.49523
-8.84516 -12.1386 -5.49876
-5.50222 -12.1398 -5.50225
-1.86656 -12.1423 -5.50379
1.86657 -12.1423 -5.50379
5.50221 -12.1398 -5.50226
8.84516 -12.1386 -5.49875
11.1349 -12.1497 -5.49524
12.2439 -12.2439 -5.49825
-12.1497 -11.1349 -5.49524
-11.0898 -11.0898 -5.48734
-8.82265 -11.0869 -5.48978
-5.49278 -11.0885 -5.49283
-1.86422 -11.09 -5.49414
1.86422 -11.09 -5.49415
5.49274 -11.0885 -5.49282
8.82263 -11.0869 -5.48972
11.0898 -11.0898 -5.48735
12.1497 -11.1349 -5.49521
-12.1386 -8.84516 -5.49875
-11.0869 -8.82265 -5.48973
-8.82384 -8.82383 -5.49185
-5.49472 -8.82687 -5.49468
-1.86515 -8.8283 -5.49606
1.86514 -8.82828 -5.49607
5.49473 -8.82688 -5.49467
8.82382 -8.8238 -5.49187
11.0869 -8.82267 -5.48974
12.1387 -8.84517 -5.49879
-12.1398 -5.50221 -5.50225
-11.0885 -5.49278 -5.49279
-8.82686 -5.4947 -5.49472
-5.49754 -5.49752 -5.49756
-1.8663 -5.49891 -5.49887
1.86637 -5.49889 -5.49887
5.49761 -5.49756 -5.4976
8.82695 -5.49467 -5.49466
11.0886 -5.4928 -5.49282
12.1398 -5.50222 -5.50224
-12.1423 -1.86657 -5.50381
-11.09 -1.86423 -5.49417
-8.8283 -1.86515 -5.49608
-5.4989 -1.86633 -5.49891
-1.86695 -1.86696 -5.50019
1.86693 -1.86694 -5.50022
5.49888 -1.86632 -5.49885
8.82829 -1.86514 -5.4961
11.09 -1.86423 -5.49416
12.1423 -1.86654 -5.50381
-12.1423 1.8666 -5.50377
-11.09 1.86421 -5.49414
-8.8283 1.86515 -5.49606
-5.4989 1.86635 -5.49885
-1.86697 1.86694 -5.50015
1.86692 1.86691 -5.50013
5.49887 1.86635 -5.49892
8.82828 1.86514 -5.49606
11.0899 1.86421 -5.49415
12.1423 1.86655 -5.50379
-12.1398 5.50221 -5.50225
-11.0885 5.49274 -5.49285
-8.82687 5.49474 -5.4947
-5.49751 5.4976 -5.49757
-1.86634 5.49885 -5.49894
1.86642 5.49888 -5.49893
5.49763 5.49758 -5.49753
8.82695 5.49474 -5.49471
11.0886 5.4928 -5.49284
12.1399 5.50223 -5.50226
-12.1386 8.84517 -5.49876
-11.0869 8.82264 -5.48974
-8.82385 8.82381 -5.49189
-5.49473 8.82696 -5.49474
-1.86517 8.82831 -5.49607
1.86515 8.82832 -5.49604
5.49473 8.82691 -5.49477
8.82376 8.82383 -5.49184
11.0869 8.82259 -5.48976
12.1386 8.84517 -5.49877
-12.1498 11.1349 -5.49524
-11.0898 11.0898 -5.48734
-8.82266 11.0869 -5.48973
-5.49279 11.0886 -5.49283
-1.86422 11.09 -5.49414
1.86421 11.09 -5.49415
5.49275 11.0886 -5.49281
8.82264 11.0869 -5.48978
11.0898 11.0898 -5.48734
12.1497 11.1349 -5.49524
-12.2439 12.2439 -5.49826
-11.1349 12.1497 -5.49524
-8.84517 12.1386 -5.49878
-5.50222 12.1399 -5.50224
-1.86656 12.1423 -5.50382
1.86658 12.1423 -5.50381
5.50222 12.1398 -5.50225
8.84516 12.1386 -5.49876
11.1349 12.1497 -5.49524
12.2439 12.2439 -5.49825
-12.247 -12.247 -1.86441
-11.137 -12.1525 -1.86385
-8.84705 -12.1412 -1.86521
-5.50379 -12.1423 -1.86661
-1.86722 -12.1447 -1.86724
1.86725 -12.1447 -1.86721
5.50374 -12.1423 -1.86664
8.84704 -12.1412 -1.86521
11.137 -12.1524 -1.86388
12.247 -12.247 -1.8644
-12.1525 -11.137 -1.86389
-11.0915 -11.0915 -1.86197
-8.82422 -11.0884 -1.86294
-5.49414 -11.09 -1.86425
-1.86485 -11.0913 -1.86486
1.86488 -11.0913 -1.86485
5.49419 -11.09 -1.86428
8.82423 -11.0884 -1.86298
11.0915 -11.0915 -1.86196
12.1525 -11.137 -1.86388
-12.1412 -8.84705 -1.8652
-11.0884 -8.82422 -1.86298
-8.82526 -8.82528 -1.86397
-5.49604 -8.82831 -1.86511
-1.86574 -8.82964 -1.86576
1.86573 -8.82966 -1.86576
5.49605 -8.82828 -1.86511
8.82521 -8.82528 -1.86399
11.0884 -8.82421 -1.86297
12.1411 -8.84705 -1.86518
-12.1423 -5.50381 -1.8666
-11.09 -5.49416 -1.86422
-8.8283 -5.49606 -1.86514
-5.4989 -5.49887 -1.86637
-1.86696 -5.50018 -1.86695
1.86693 -5.50019 -1.86694
5.49887 -5.49888 -1.8664
8.82831 -5.49608 -1.8651
11.09 -5.49414 -1.86423
12.1423 -5.50378 -1.86661
-12.1447 -1.86719 -1.86721
-11.0913 -1.86484 -1.86488
-8.82964 -1.86575 -1.86575
-5.50016 -1.86694 -1.86697
-1.86753 -1.86753 -1.86756
1.86755 -1.86756 -1.86758
5.50014 -1.86694 -1.86691
8.8296 -1.86576 -1.86579
11.0913 -1.86485 -1.86487
12.1446 -1.86723 -1.86722
-12.1446 1.8672 -1.86721
-11.0913 1.86488 -1.86485
-8.82964 1.86573 -1.86575
-5.50016 1.86695 -1.86695
-1.86752 1.86754 -1.86747
1.86754 1.8675 -1.86746
5.50015 1.86694 -1.86696
8.82959 1.86572 -1.86575
11.0913 1.86489 -1.86486
12.1446 1.86722 -1.86722
-12.1423 5.50379 -1.86661
-11.09 5.49418 -1.86429
-8.82829 5.49601 -1.86514
-5.49891 5.49888 -1.86636
-1.86695 5.5001 -1.867
1.86693 5.50011 -1.86699
5.49885 5.4989 -1.86635
8.82833 5.49601 -1.86517
11.09 5.49417 -1.86432
12.1423 5.50376 -1.86663
-12.1412 8.84696 -1.86525
-11.0884 8.8242 -1.863
-8.82526 8.82521 -1.864
-5.49604 8.82832 -1.86515
-1.86573 8.82962 -1.86574
1.86574 8.82961 -1.86574
5.49606 8.82832 -1.86523
8.82521 8.8252 -1.86397
11.0885 8.82422 -1.86298
12.1412 8.84698 -1.86526
-12.1524 11.137 -1.86387
-11.0915 11.0915 -1.86201
-8.82421 11.0884 -1.86301
-5.49414 11.09 -1.86429
-1.86485 11.0913 -1.8649
1.86488 11.0912 -1.86489
5.49417 11.09 -1.86428
8.82421 11.0884 -1.863
11.0915 11.0915 -1.86201
12.1525 11.137 -1.86387
-12.247 12.247 -1.86442
-11.137 12.1525 -1.86388
-8.84704 12.1412 -1.86529
-5.50378 12.1423 -1.86662
-1.86723 12.1446 -1.86724
1.86723 12.1446 -1.86724
5.50377 12.1424 -1.86663
8.84702 12.1412 -1.86525
11.137 12.1525 -1.86387
12.247 12.247 -1.86444
-12.247 -12.247 1.86434
-11.137 -12.1525 1.86379
-8.84704 -12.1412 1.86519
-5.50378 -12.1423 1.86657
-1.86722 -12.1447 1.86722
1.86723 -12.1446 1.86722
5.50375 -12.1423 1.86655
8.84702 -12.1412 1.8652
11.137 -12.1525 1.86382
12.247 -12.247 1.86435
-12.1525 -11.137 1.86384
-11.0915 -11.0915 1.86194
-8.82423 -11.0884 1.86298
-5.49415 -11.09 1.86418
-1.86486 -11.0913 1.86483
1.86488 -11.0912 1.86483
5.49419 -11.09 1.8642
8.82423 -11.0884 1.86301
11.0915 -11.0915 1.86196
12.1525 -11.137 1.8638
-12.1412 -8.84705 1.86518
-11.0884 -8.82422 1.863
-8.82526 -8.82528 1.86385
-5.49607 -8.82829 1.86517
-1.86574 -8.82964 1.86572
1.86577 -8.82957 1.86572
5.49603 -8.82829 1.86519
8.82524 -8.82525 1.86385
11.0885 -8.82424 1.86298
12.1412 -8.84705 1.86516
-12.1423 -5.50378 1.86651
-11.09 -5.49415 1.86418
-8.82828 -5.49604 1.86515
-5.49889 -5.49888 1.86625
-1.86696 -5.50015 1.86697
1.86694 -5.50012 1.86696
5.49885 -5.49892 1.86628
8.82831 -5.49602 1.86516
11.0899 -5.49415 1.86417
12.1423 -5.50379 1.86655
-12.1447 -1.86719 1.8672
-11.0913 -1.86486 1.86482
-8.82964 -1.86574 1.86571
-5.50015 -1.86697 1.86692
-1.86752 -1.86754 1.86752
1.86754 -1.86744 1.86746
5.50014 -1.86698 1.86695
8.82962 -1.86574 1.86568
11.0913 -1.86487 1.86481
12.1446 -1.8672 1.8672
-12.1447 1.86723 1.86722
-11.0913 1.86487 1.86484
-8.82963 1.86577 1.86571
-5.50013 1.86692 1.86697
-1.86753 1.86754 1.86757
1.86756 1.86759 1.8676
5.50018 1.86689 1.86692
8.82966 1.8658 1.86576
11.0913 1.86486 1.86484
12.1446 1.86724 1.86723
-12.1423 5.5038 1.86651
-11.09 5.49418 1.86417
-8.82829 5.49605 1.86517
-5.4989 5.49885 1.86632
-1.86696 5.50014 1.86691
1.86693 5.50021 1.86691
5.49887 5.49882 1.86639
8.82828 5.49608 1.86512
11.0899 5.49418 1.86417
12.1423 5.50379 1.86655
-12.1412 8.847 1.86512
-11.0884 8.8242 1.86296
-8.82526 8.82524 1.86385
-5.49607 8.82833 1.86513
-1.86573 8.8296 1.86573
1.86576 8.82972 1.86574
5.49602 8.82823 1.86507
8.82521 8.8253 1.8639
11.0885 8.8242 1.86299
12.1412 8.84701 1.86513
-12.1525 11.137 1.86378
-11.0915 11.0915 1.86192
-8.82423 11.0885 1.86297
-5.49415 11.0899 1.86416
-1.86486 11.0913 1.86483
1.86487 11.0914 1.86483
5.49417 11.0899 1.8642
8.82419 11.0885 1.86292
11.0915 11.0915 1.86188
12.1525 11.137 1.86377
-12.247 12.247 1.86432
-11.137 12.1525 1.8638
-8.84705 12.1412 1.86515
-5.50377 12.1423 1.86656
-1.86724 12.1446 1.86722
1.86723 12.1447 1.86722
5.50376 12.1422 1.86654
8.84701 12.1413 1.86512
11.137 12.1525 1.86377
12.247 12.247 1.86435
-12.2439 -12.2439 5.49816
-11.1349 -12.1498 5.49519
-8.84517 -12.1386 5.4987
-5.50222 -12.1398 5.50216
-1.86656 -12.1423 5.50377
1.86658 -12.1423 5.50376
5.50224 -12.1398 5.50216
8.84516 -12.1386 5.49872
11.1349 -12.1497 5.49517
12.2439 -12.2439 5.49817
-12.1497 -11.1349 5.49519
-11.0898 -11.0898 5.48724
-8.82265 -11.0869 5.48973
-5.49278 -11.0886 5.49272
-1.86423 -11.09 5.49411
1.86421 -11.09 5.49411
5.49274 -11.0885 5.49272
8.82264 -11.0869 5.48975
11.0898 -11.0898 5.48724
12.1497 -11.1349 5.49519
-12.1386 -8.84519 5.49874
-11.0869 -8.82267 5.48973
-8.82383 -8.82383 5.49176
-5.4947 -8.82689 5.49478
-1.86516 -8.82827 5.496
1.86513 -8.82831 5.496
5.49474 -8.82688 5.49476
8.82382 -8.82385 5.49172
11.0869 -8.82267 5.48975
12.1386 -8.84519 5.49873
-12.1398 -5.50223 5.50216
-11.0885 -5.49279 5.49278
-8.82688 -5.4947 5.49476
-5.49751 -5.49752 5.49744
-1.86636 -5.49888 5.4989
1.86639 -5.4989 5.49891
5.49758 -5.49752 5.4975
8.82694 -5.49471 5.49477
11.0886 -5.49278 5.49273
12.1398 -5.50222 5.50216
-12.1423 -1.86657 5.50375
-11.09 -1.86422 5.49406
-8.82828 -1.86515 5.49599
-5.49889 -1.86632 5.4989
-1.86695 -1.86695 5.50012
1.86694 -1.86699 5.50008
5.49888 -1.86631 5.49891
8.82829 -1.86515 5.49596
11.09 -1.86423 5.49409
12.1423 -1.86658 5.50376
-12.1423 1.86657 5.50375
-11.09 1.86419 5.4941
-8.82829 1.86514 5.49598
-5.4989 1.86636 5.49887
-1.86696 1.86693 5.50018
1.86692 1.86689 5.50019
5.49883 1.86638 5.49884
8.82827 1.86513 5.49598
11.0899 1.8642 5.49416
12.1422 1.86655 5.50375
-12.1398 5.5022 5.5022
-11.0885 5.49274 5.4927
-8.82686 5.4947 5.49475
-5.4975 5.49759 5.49753
-1.86633 5.49889 5.49883
1.86641 5.49883 5.49888
5.49758 5.49763 5.49755
8.82696 5.4947 5.49475
11.0886 5.49277 5.49269
12.1399 5.50227 5.50217
-12.1387 8.84515 5.49872
-11.087 8.82259 5.48971
-8.82383 8.82378 5.49173
-5.49471 8.82691 5.49473
-1.86516 8.82831 5.49598
1.86512 8.82827 5.496
5.49474 8.82694 5.49468
8.82384 8.82377 5.49176
11.0869 8.82261 5.48972
12.1386 8.84522 5.49873
-12.1497 11.1349 5.49522
-11.0898 11.0898 5.48722
-8.82265 11.0869 5.48972
-5.49278 11.0886 5.49271
-1.86422 11.09 5.49411
1.86423 11.0899 5.4941
5.49279 11.0886 5.49273
8.82261 11.0869 5.48972
11.0898 11.0898 5.48726
12.1497 11.1349 5.49522
-12.2439 12.2439 5.49818
-11.1349 12.1497 5.49521
-8.84517 12.1386 5.4987
-5.50222 12.1398 5.50215
-1.86656 12.1423 5.50373
1.86659 12.1423 5.50374
5.50225 12.1399 5.50216
8.84521 12.1386 5.49871
11.1349 12.1497 5.4952
12.244 12.244 5.49816
-12.2399 -12.2399 8.84679
-11.1311 -12.1476 8.83652
-8.84083 -12.1371 8.84076
-5.49876 -12.1386 8.84512
-1.86517 -12.1412 8.84701
1.86522 -12.1412 8.84705
5.49874 -12.1386 8.84512
8.84084 -12.1371 8.84081