# vtk DataFile Version 3.0 
Lennard-Jones particle simulation 
ASCII 
DATASET UNSTRUCTURED_GRID 
POINTS 1000 float 
-6.57998 -6.57997 -6.57998
-4.74929 -6.54047 -6.54047
-2.44084 -6.54573 -6.54573
0.229336 -6.55283 -6.55285
3.05803 -6.55637 -6.55637
5.94198 -6.55637 -6.55637
8.77069 -6.55284 -6.55285
11.4408 -6.54573 -6.54573
13.7493 -6.54047 -6.54047
15.58 -6.57998 -6.57998
-6.54047 -4.74929 -6.54047
-4.73065 -4.73065 -6.48831
-2.43699 -4.73049 -6.49194
0.229314 -4.73186 -6.49904
3.0578 -4.73279 -6.50271
5.94217 -4.73279 -6.50271
8.77069 -4.73186 -6.49904
11.437 -4.73049 -6.49193
13.7306 -4.73064 -6.48831
15.5405 -4.74929 -6.54047
-6.54573 -2.44084 -6.54573
-4.73049 -2.43699 -6.49193
-2.43835 -2.43835 -6.49482
0.227635 -2.43982 -6.50152
3.05715 -2.44054 -6.50512
5.94286 -2.44054 -6.50512
8.77237 -2.43982 -6.50152
11.4383 -2.43835 -6.49483
13.7305 -2.43698 -6.49194
15.5457 -2.44083 -6.54574
-6.55284 0.229334 -6.55284
-4.73186 0.229309 -6.49904
-2.43983 0.227646 -6.50154
0.226146 0.226146 -6.50797
3.05652 0.225448 -6.51145
5.94348 0.225447 -6.51145
8.77386 0.226146 -6.508
11.4398 0.227638 -6.50152
13.7319 0.22932 -6.49903
15.5529 0.22933 -6.55284
-6.55637 3.05805 -6.55637
-4.7328 3.05781 -6.50271
-2.44055 3.05716 -6.50511
0.225439 3.05652 -6.51147
3.05622 3.05623 -6.51484
5.94378 3.05622 -6.51485
8.77454 3.05653 -6.51144
11.4405 3.05715 -6.50513
13.7328 3.05781 -6.50271
15.5564 3.05804 -6.55637
-6.55636 5.94196 -6.55636
-4.73279 5.9422 -6.5027
-2.44054 5.94286 -6.50512
0.225445 5.94347 -6.51142
3.05624 5.94376 -6.51483
5.94378 5.94377 -6.51482
8.77456 5.94347 -6.51145
11.4406 5.94286 -6.50511
13.7328 5.9422 -6.50271
15.5564 5.94197 -6.55637
-6.55285 8.77069 -6.55286
-4.73187 8.77069 -6.49906
-2.43984 8.7724 -6.50154
0.22614 8.77384 -6.50799
3.05652 8.77455 -6.51146
5.94346 8.77455 -6.51146
8.77384 8.77384 -6.50798
11.4398 8.77236 -6.50155
13.7319 8.77068 -6.49905
15.5528 8.77067 -6.55285
-6.54573 11.4408 -6.54573
-4.73049 11.437 -6.49193
-2.43835 11.4384 -6.49483
0.227635 11.4398 -6.50155
3.05716 11.4405 -6.50511
5.94287 11.4405 -6.50511
8.77237 11.4398 -6.50156
11.4383 11.4383 -6.49481
13.7305 11.437 -6.49194
15.5457 11.4408 -6.54573
-6.54047 13.7493 -6.54047
-4.73065 13.7306 -6.48832
-2.437 13.7305 -6.49194
0.229312 13.7319 -6.49905
3.05782 13.7328 -6.50272
5.94218 13.7328 -6.50271
8.7707 13.7319 -6.49904
11.437 13.7305 -6.49195
13.7306 13.7306 -6.48832
15.5405 13.7493 -6.54047
-6.57998 15.58 -6.57999
-4.74929 15.5405 -6.54047
-2.44084 15.5457 -6.54574
0.229331 15.5528 -6.55285
3.05804 15.5564 -6.55637
5.94197 15.5564 -6.55637
8.77068 15.5528 -6.55285
11.4408 15.5457 -6.54573
13.7493 15.5405 -6.54047
15.58 15.58 -6.57999
-6.54047 -6.54047 -4.7493
-4.73065 -6.48831 -4.73065
-2.437 -6.49194 -4.73049
0.229316 -6.49904 -4.73187
3.05781 -6.50271 -4.73279
5.94217 -6.50271 -4.73279
8.7707 -6.49904 -4.73187
11.437 -6.49194 -4.73049
13.7306 -6.48831 -4.73066
15.5405 -6.54047 -4.7493
-6.48831 -4.73065 -4.73065
-4.70059 -4.70059 -4.7006
-2.42766 -4.69798 -4.69798
0.231792 -4.69851 -4.69851
3.05828 -4.69921 -4.6992
5.94173 -4.69921 -4.6992
8.76819 -4.69851 -4.69851
11.4277 -4.69798 -4.69798
13.7006 -4.7006 -4.7006
15.4883 -4.73065 -4.73065
-6.49195 -2.43699 -4.73049
-4.69799 -2.42766 -4.69798
-2.42762 -2.42761 -4.69483
0.230758 -2.42844 -4.6951
3.05779 -2.42893 -4.69576
5.94221 -2.42892 -4.69576
8.76925 -2.42845 -4.6951
11.4276 -2.42761 -4.69483
13.698 -2.42766 -4.69799
15.4919 -2.437 -4.73049
-6.49903 0.229313 -4.73187
-4.6985 0.231804 -4.69851
-2.42845 0.230761 -4.69512
0.229552 0.229554 -4.69526
3.05726 0.22898 -4.69586
5.94274 0.228981 -4.69585
8.77045 0.229553 -4.69528
11.4285 0.230764 -4.69509
13.6985 0.231798 -4.69851
15.499 0.229311 -4.73186
-6.50271 3.05781 -4.7328
-4.6992 3.05828 -4.69921
-2.42893 3.05779 -4.69576
0.228978 3.05724 -4.69587
3.05698 3.05698 -4.69639
5.94303 3.05699 -4.6964
8.77105 3.05724 -4.69585
11.4289 3.0578 -4.69577
13.6992 3.05829 -4.69921
15.5027 3.05781 -4.73279
-6.50273 5.94219 -4.73278
-4.69923 5.94172 -4.6992
-2.42894 5.9422 -4.69576
0.228973 5.94276 -4.69583
3.05697 5.94303 -4.69638
5.94303 5.94303 -4.69637
8.77104 5.94275 -4.69586
11.4289 5.9422 -4.69575
13.6992 5.94171 -4.69921
15.5027 5.94219 -4.73279
-6.49903 8.77069 -4.73188
-4.6985 8.76821 -4.69853
-2.42845 8.76923 -4.69511
0.229549 8.77044 -4.69528
3.05726 8.77104 -4.69587
5.94274 8.77104 -4.69587
8.77046 8.77045 -4.69526
11.4285 8.76925 -4.69512
13.6985 8.76821 -4.69852
15.4991 8.7707 -4.73187
-6.49194 11.437 -4.7305
-4.69799 11.4277 -4.69798
-2.42762 11.4276 -4.69483
0.23076 11.4285 -4.69512
3.05778 11.4289 -4.69576
5.9422 11.4289 -4.69576
8.76924 11.4285 -4.69513
11.4276 11.4276 -4.69482
13.698 11.4277 -4.69799
15.4919 11.437 -4.73049
-6.48832 13.7306 -4.73066
-4.7006 13.7006 -4.70061
-2.42766 13.698 -4.69798
0.231788 13.6985 -4.69853
3.05828 13.6992 -4.69922
5.94173 13.6992 -4.69921
8.76819 13.6985 -4.69851
11.4277 13.698 -4.69799
13.7006 13.7006 -4.7006
15.4883 13.7306 -4.73066
-6.54047 15.5405 -4.7493
-4.73066 15.4883 -4.73066
-2.437 15.4919 -4.7305
0.229311 15.4991 -4.73187
3.0578 15.5027 -4.7328
5.94217 15.5027 -4.7328
8.7707 15.4991 -4.73187
11.437 15.4919 -4.7305
13.7306 15.4883 -4.73066
15.5405 15.5405 -4.7493
-6.54574 -6.54574 -2.44085
-4.7305 -6.49195 -2.43699
-2.43836 -6.49481 -2.43834
0.227628 -6.50155 -2.43983
3.05715 -6.50512 -2.44054
5.94287 -6.50512 -2.44054
8.77238 -6.50154 -2.43983
11.4384 -6.49483 -2.43834
13.7305 -6.49195 -2.437
15.5457 -6.54574 -2.44085
-6.49195 -4.7305 -2.43699
-4.69799 -4.698 -2.42766
-2.42762 -4.69482 -2.42762
0.230754 -4.69512 -2.42846
3.05779 -4.69576 -2.42892
5.94221 -4.69576 -2.42892
8.76925 -4.69511 -2.42845
11.4276 -4.69483 -2.42762
13.698 -4.69799 -2.42767
15.492 -4.7305 -2.437
-6.49481 -2.43835 -2.43835
-4.69482 -2.42762 -2.42762
-2.42729 -2.42728 -2.4273
0.229837 -2.428 -2.42797
3.05734 -2.42843 -2.42844
5.94266 -2.42844 -2.42844
8.77016 -2.42799 -2.42797
11.4273 -2.4273 -2.42731
13.6948 -2.42762 -2.42762
15.4948 -2.43835 -2.43835
-6.50155 0.22763 -2.43983
-4.69513 0.230754 -2.42844
-2.428 0.229837 -2.42798
0.228689 0.228698 -2.42864
3.05681 0.228126 -2.42907
5.94318 0.228121 -2.42906
8.77131 0.228709 -2.42867
11.428 0.229817 -2.42797
13.6951 0.230755 -2.42845
15.5015 0.22763 -2.43982
-6.50513 3.05714 -2.44055
-4.69577 3.05779 -2.42893
-2.42844 3.05732 -2.42844
0.228116 3.05681 -2.42909
3.05654 3.05655 -2.42947
5.94345 3.05654 -2.42949
8.77186 3.05681 -2.42906
11.4284 3.05731 -2.42844
13.6958 3.05779 -2.42894
15.5051 3.05715 -2.44055
-6.50513 5.94286 -2.44054
-4.69577 5.94219 -2.42892
-2.42843 5.94266 -2.42844
0.228128 5.94317 -2.42905
3.05655 5.94346 -2.42945
5.94346 5.94345 -2.42944
8.77188 5.9432 -2.42907
11.4284 5.94264 -2.42843
13.6958 5.94221 -2.42892
15.5051 5.94285 -2.44054
-6.50152 8.77236 -2.43984
-4.6951 8.76924 -2.42846
-2.42798 8.77015 -2.42798
0.228695 8.7713 -2.42865
3.0568 8.77187 -2.42908
5.94318 8.77187 -2.42908
8.7713 8.77131 -2.42863
11.4279 8.77015 -2.42799
13.6951 8.76924 -2.42846
15.5015 8.77236 -2.43984
-6.4948 11.4383 -2.43836
-4.6948 11.4276 -2.42762
-2.42727 11.4273 -2.4273
0.229856 11.428 -2.428
3.05734 11.4284 -2.42844
5.94266 11.4284 -2.42842
8.77016 11.428 -2.42801
11.4273 11.4273 -2.42728
13.6948 11.4276 -2.42763
15.4948 11.4383 -2.43835
-6.49193 13.7305 -2.43701
-4.69798 13.698 -2.42767
-2.42761 13.6948 -2.42762
0.230769 13.6951 -2.42846
3.05779 13.6958 -2.42893
5.94219 13.6957 -2.42894
8.76925 13.6951 -2.42845
11.4276 13.6948 -2.42763
13.698 13.698 -2.42767
15.4919 13.7305 -2.43701
-6.54572 15.5457 -2.44085
-4.73048 15.4919 -2.437
-2.43834 15.4948 -2.43836
0.227644 15.5015 -2.43984
3.05715 15.5051 -2.44055
5.94286 15.5051 -2.44055
8.77237 15.5015 -2.43983
11.4384 15.4948 -2.43836
13.7305 15.4919 -2.43701
15.5457 15.5457 -2.44086
-6.55282 -6.55282 0.229313
-4.73184 -6.49902 0.229309
-2.43981 -6.50153 0.227635
0.226154 -6.50797 0.226135
3.05653 -6.51145 0.225443
5.94347 -6.51145 0.225442
8.77384 -6.50797 0.22613
11.4398 -6.50152 0.22764
13.7318 -6.49903 0.229304
15.5528 -6.55282 0.229314
-6.49902 -4.73184 0.229305
-4.69849 -4.69849 0.231793
-2.42843 -4.6951 0.230735
0.229558 -4.69526 0.229533
3.05726 -4.69586 0.228979
5.94274 -4.69585 0.228977
8.77042 -4.69526 0.229537
11.4284 -4.69509 0.230762
13.6985 -4.6985 0.231791
15.499 -4.73184 0.229315
-6.50153 -2.43981 0.227638
-4.69511 -2.42843 0.230759
-2.42799 -2.42798 0.229823
0.228697 -2.42862 0.228716
3.05681 -2.42907 0.228126
5.94319 -2.42906 0.228124
8.77131 -2.42863 0.228722
11.428 -2.42797 0.229813
13.6951 -2.42844 0.230752
15.5015 -2.43981 0.227624
-6.50797 0.226155 0.226133
-4.69525 0.229556 0.229549
-2.42862 0.228707 0.228699
0.227585 0.227587 0.227573
3.05632 0.226996 0.227011
5.94372 0.227005 0.227013
8.77246 0.227574 0.22755
11.4287 0.228721 0.228726
13.6953 0.229549 0.229537
15.508 0.226152 0.22614
-6.51145 3.05653 0.225433
-4.69585 3.05726 0.228965
-2.42907 3.05681 0.228117
0.226998 3.0563 0.226993
3.05602 3.05602 0.22645
5.94397 3.05603 0.226435
8.77299 3.05631 0.227019
11.4291 3.05682 0.228107
13.6959 3.05726 0.228971
15.5115 3.05654 0.225435
-6.51145 5.94348 0.225449
-4.69586 5.94273 0.228981
-2.42907 5.94319 0.228125
0.226999 5.94371 0.227023
3.05601 5.94398 0.226473
5.94396 5.94396 0.22648
8.77298 5.94371 0.226992
11.4291 5.94319 0.228128
13.6958 5.94273 0.228979
15.5115 5.94346 0.22544
-6.50797 8.77385 0.226136
-4.69526 8.77042 0.229523
-2.42863 8.77131 0.228707
0.227593 8.77245 0.227566
3.0563 8.77298 0.226981
5.94374 8.77299 0.226984
8.77246 8.77244 0.227584
11.4287 8.77132 0.228699
13.6953 8.77044 0.229527
15.508 8.77385 0.226131
-6.50154 11.4398 0.227633
-4.69511 11.4284 0.230754
-2.42799 11.428 0.229804
0.228691 11.4287 0.228685
3.0568 11.4291 0.228125
5.94319 11.4291 0.228136
8.7713 11.4286 0.228671
11.428 11.428 0.229829
13.6951 11.4284 0.23074
15.5015 11.4398 0.227629
-6.49903 13.7319 0.229303
-4.69849 13.6985 0.231789
-2.42844 13.6951 0.230755
0.229555 13.6953 0.229528
3.05726 13.6959 0.228978
5.94273 13.6959 0.228974
8.77043 13.6953 0.229541
11.4284 13.6951 0.23073
[...]
POINT_DATA 1000
SCALARS mass float 
LOOKUP_TABLE default 
1
1
1
1
1
1
1
1
1
1
1
1
1
1
1
1
1
1
1
1
1
1
1
1
1
1
1
1
1
1
1
1
1
1
1
1
1
1
1
1
1
1
1
1
1
1
1
1
1
1
1
1
1
1
1
1
1
1
1
1
1
1
1
1
1
1
1
1
1
1
1
1
1
1
1
1
1
1
1
1
1
1
1
1
1
1
1
1
1
1
1
1
1
1
1
1
1
1
1
1
1
1
1
1
1
1
1
1
1
1
1
1
1
1
1
1
1
1
1
1
1
1
1
1
1
1
1
1
1
1
1
1
1
1
1
1
1
1
1
1
1
1
1
1
1
1
1
1
1
1
1
1
1
1
1
1
1
1
1
1
1
1
1
1
1
1
1
1
1
1
1
1
1
1
1
1
1
1
1
1
1
1
1
1
1
1
1
1
1
1
1
1
1
1
1
1
1
1
1
1
1
1
1
1
1
1
1
1
1
1
1
1
1
1
1
1
1
1
1
1
1
1
1
1
1
1
1
1
1
1
1
1
1
1
1
1
1
1
1
1
1
1
1
1
1
1
1
1
1
1
1
1
1
1
1
1
1
1
1
1
1
1
1
1
1
1
1
1
1
1
1
1
1
1
1
1
1
1
1
1
1
1
1
1
1
1
1
1
1
1
1
1
1
1
1
1
1
1
1
1
1
1
1
1
1
1
1
1
1
1
1
1
1
1
1
1
1
1
1
1
1
1
1
1
1
1
1
1
1
1
1
1
1
1
1
1
1
1
1
1
1
1
1
1
1
1
1
1
1
1
1
1
1
1
1
1
1
1
1
1
1
1
1
1
1
1
1
1
1
1
1
1
1
1
1
1
1
1
1
1
1
1
1
1
1
1
1
1
1
1
1
1
1
1
1
1
1
1
1
1
1
1
1
1
1
1
1
1
1
1
1
1
1
1
1
1
1
1
1
1
1
1
1
1
1
1
1
1
1
1
1
1
1
1
1
1
1
1
1
1
1
1
1
1
1
1
1
1
1
1
1
1
1
1
1
1
1
1
1
1
1
1
1
1
1
1
1
1
1
1
1
1
1
1
1
1
1
1
1
1
1
1
1
1
1
1
1
1
1
1
1
1
1
1
1
1
1
1
1
1
1
1
1
1
1
1
1
1
1
1
1
1
1
1
1
1
1
1
1
1
1
1
1
1
1
1
1
1
1
1
1
1
1
1
1
1
1
1
1
1
1
1
1
1
1
1
1
1
1
1
1
1
1
1
1
1
1
1
1
1
1
1
1
1
1
1
1
1
1
1
1
1
1
1
1
1
1
1
1
1
1
1
1
1
1
1
1
1
1
1
1
1
1
1
1
1
1
1
1
1
1
1
1
1
1
1
1
1
1
1
1
1
1
1
1
1
1
1
1
1
1
1
1
1
1
1
1
1
1
1
1
1
1
1
1
1
1
1
1
1
1
1
1
1
1
1
1
1
1
1
1
1
1
1
1
1
1
1
1
1
1
1
1
1
1
1
1
1
1
1
1
1
1
1
1
1
1
1
1
1
1
1
1
1
1
1
1
1
1
1
1
1
1
1
1
1
1
1
1
1
1
1
1
1
1
1
1
1
1
1
1
1
1
1
1
1
1
1
1
1
1
1
1
1
1
1
1
1
1
1
1
1
1
1
1
1
1
1
1
1
1
1
1
1
1
1
1
1
1
1
1
1
1
1
1
1
1
1
1
1
1
1
1
1
1
1
1
1
1
1
1
1
1
1
1
1
1
1
1
1
1
1
1
1
1
1
1
1
1
1
1
1
1
1
1
1
1
1
1
1
1
1
1
1
1
1
1
1
1
1
1
1
1
1
1
1
1
1
1
1
1
1
1
1
1
1
1
1
1
1
1
1
1
1
1
1
1
1
1
1
1
1
1
1
1
1
1
1
1
1
1
1
1
1
1
1
1
1
1
1
1
1
1
1
1
1
1
1
1
1
1
1
1
1
1
1
1
1
1
1
1
1
1
1
1
1
1
1
1
1
1
1
1
1
1
1
1
1
1
1
1
1
1
1
1
1
1
1
1
1
1
1
1
1
1
1
1
1
1
1
1
1
1
1
1
1
1
1
1
1
1
1
1
1
1
1
1
1
1
1
1
1
1
1
1
1
1
1
1
1
1
1
1
1
1
1
1
1
1
1
1
1
1
1
1
1
1
1
1
1
1
1
1
1
1
1
1
1
1
1
1
1
1
1
1
1
1
1
1
1
1
1
1
1
1
1
1
1
1
1
VECTORS velocity float 
-12.1962 -12.1962 -12.1962
-11.237 -12.0966 -12.0966
-8.76164 -12.1227 -12.1227
-5.46675 -12.1477 -12.1477
-1.86268 -12.1588 -12.1588
1.8627 -12.1588 -12.1588
5.4668 -12.1477 -12.1477
8.76163 -12.1227 -12.1227
11.237 -12.0966 -12.0966
12.1962 -12.1962 -12.1962
-12.0966 -11.237 -12.0966
-11.1928 -11.1928 -11.9721
-8.75672 -11.1849 -11.9974
-5.46807 -11.1844 -12.0242
-1.8635 -11.1853 -12.0363
1.86344 -11.1853 -12.0363
5.46807 -11.1844 -12.0242
8.75671 -11.1849 -11.9974
11.1928 -11.1928 -11.9721
12.0966 -11.237 -12.0966
-12.1227 -8.76165 -12.1227
-11.1849 -8.75672 -11.9974
-8.75508 -8.75507 -12.0204
-5.46988 -8.7555 -12.0458
-1.86437 -8.75594 -12.0576
1.86441 -8.75595 -12.0576
5.4699 -8.7555 -12.0458
8.75506 -8.75507 -12.0204
11.1849 -8.7567 -11.9974
12.1227 -8.76162 -12.1227
-12.1477 -5.46676 -12.1477
-11.1844 -5.46808 -12.0242
-8.75551 -5.46986 -12.0459
-5.4719 -5.4719 -12.0703
-1.86539 -5.47288 -12.0817
1.86539 -5.47288 -12.0817
5.47191 -5.4719 -12.0704
8.7555 -5.46988 -12.0458
11.1845 -5.46805 -12.0242
12.1477 -5.46677 -12.1477
-12.1588 -1.86265 -12.1588
-11.1853 -1.86348 -12.0363
-8.75596 -1.86437 -12.0576
-5.4729 -1.86539 -12.0818
-1.86588 -1.86587 -12.0929
1.86589 -1.86588 -12.0929
5.47284 -1.86539 -12.0817
8.75592 -1.86437 -12.0576
11.1852 -1.86349 -12.0363
12.1588 -1.86267 -12.1588
-12.1588 1.86265 -12.1588
-11.1852 1.86349 -12.0363
-8.75596 1.8644 -12.0576
-5.47288 1.86538 -12.0817
-1.86585 1.86585 -12.0928
1.86588 1.86587 -12.0928
5.4729 1.86538 -12.0817
8.75598 1.8644 -12.0576
11.1853 1.86349 -12.0363
12.1589 1.86268 -12.1588
-12.1477 5.46682 -12.1477
-11.1844 5.46808 -12.0242
-8.75553 5.46995 -12.0459
-5.47191 5.47187 -12.0704
-1.8654 5.47287 -12.0817
1.86535 5.47286 -12.0817
5.47187 5.47187 -12.0704
8.75551 5.46987 -12.0459
11.1844 5.46805 -12.0242
12.1477 5.46678 -12.1477
-12.1227 8.76162 -12.1227
-11.1849 8.75669 -11.9974
-8.75508 8.75507 -12.0204
-5.46989 8.75552 -12.0459
-1.86436 8.75596 -12.0576
1.86441 8.75597 -12.0576
5.4699 8.75552 -12.0459
8.75507 8.75508 -12.0204
11.1849 8.75674 -11.9974
12.1227 8.76164 -12.1227
-12.0966 11.237 -12.0966
-11.1928 11.1928 -11.9721
-8.75672 11.1849 -11.9974
-5.46807 11.1844 -12.0242
-1.86347 11.1853 -12.0363
1.86346 11.1853 -12.0363
5.46809 11.1844 -12.0242
8.7567 11.1849 -11.9974
11.1928 11.1928 -11.9721
12.0966 11.237 -12.0966
-12.1962 12.1963 -12.1963
-11.237 12.0966 -12.0966
-8.76164 12.1227 -12.1227
-5.46677 12.1476 -12.1477
-1.86267 12.1588 -12.1588
1.86269 12.1588 -12.1588
5.46678 12.1477 -12.1477
8.76164 12.1227 -12.1227
11.237 12.0966 -12.0966
12.1963 12.1963 -12.1963
-12.0966 -12.0966 -11.237
-11.1928 -11.9721 -11.1928
-8.75673 -11.9974 -11.1849
-5.46806 -12.0242 -11.1844
-1.86349 -12.0363 -11.1853
1.86344 -12.0363 -11.1853
5.4681 -12.0242 -11.1844
8.7567 -11.9974 -11.1849
11.1928 -11.9721 -11.1928
12.0966 -12.0966 -11.237
-11.9721 -11.1928 -11.1928
-11.1203 -11.1203 -11.1203
-8.74089 -11.1061 -11.1061
-5.4647 -11.1038 -11.1038
-1.86301 -11.1042 -11.1042
1.86303 -11.1042 -11.1042
5.46465 -11.1038 -11.1038
8.74094 -11.1061 -11.1061
11.1203 -11.1203 -11.1203
11.9721 -11.1928 -11.1928
-11.9974 -8.75671 -11.1849
-11.1062 -8.74089 -11.1061
-8.73574 -8.73572 -11.0912
-5.46498 -8.73442 -11.0885
-1.86354 -8.73425 -11.089
1.86352 -8.73425 -11.089
5.46499 -8.73443 -11.0885
8.73574 -8.73572 -11.0912
11.1061 -8.7409 -11.1062
11.9974 -8.75672 -11.1849
-12.0242 -5.46807 -11.1844
-11.1038 -5.46467 -11.1038
-8.73444 -5.46498 -11.0886
-5.46627 -5.46627 -11.0857
-1.86428 -5.46694 -11.086
1.8643 -5.46694 -11.086
5.4663 -5.46627 -11.0857
8.73444 -5.46497 -11.0885
11.1038 -5.46469 -11.1038
12.0242 -5.46807 -11.1844
-12.0363 -1.86349 -11.1853
-11.1042 -1.86301 -11.1042
-8.73425 -1.86353 -11.089
-5.46694 -1.86433 -11.086
-1.86473 -1.86474 -11.0861
1.86476 -1.86471 -11.0861
5.467 -1.86435 -11.086
8.73426 -1.8635 -11.089
11.1042 -1.863 -11.1042
12.0363 -1.86348 -11.1853
-12.0363 1.86348 -11.1852
-11.1042 1.863 -11.1042
-8.73428 1.86351 -11.089
-5.46695 1.86433 -11.0859
-1.86476 1.86476 -11.0861
1.86475 1.86475 -11.0861
5.46698 1.86433 -11.086
8.73427 1.86349 -11.0889
11.1042 1.86299 -11.1042
12.0363 1.86347 -11.1853
-12.0242 5.46809 -11.1845
-11.1038 5.4647 -11.1038
-8.73444 5.46497 -11.0886
-5.46628 5.46627 -11.0857
-1.86429 5.46698 -11.086
1.86431 5.46699 -11.086
5.4663 5.46627 -11.0857
8.73446 5.46499 -11.0886
11.1038 5.46469 -11.1038
12.0242 5.4681 -11.1845
-11.9974 8.75671 -11.1849
-11.1062 8.74092 -11.1061
-8.73573 8.73577 -11.0912
-5.46498 8.73447 -11.0886
-1.86354 8.73427 -11.089
1.8635 8.73428 -11.089
5.46498 8.73446 -11.0886
8.73577 8.73577 -11.0912
11.1061 8.74092 -11.1062
11.9974 8.7567 -11.1849
-11.9721 11.1928 -11.1928
-11.1203 11.1203 -11.1203
-8.74089 11.1061 -11.1061
-5.46471 11.1038 -11.1038
-1.86302 11.1042 -11.1042
1.86303 11.1042 -11.1042
5.46465 11.1038 -11.1038
8.74094 11.1061 -11.1062
11.1203 11.1203 -11.1203
11.9721 11.1928 -11.1928
-12.0966 12.0966 -11.237
-11.1928 11.9721 -11.1928
-8.75673 11.9974 -11.1849
-5.46807 12.0242 -11.1844
-1.8635 12.0363 -11.1853
1.86343 12.0363 -11.1853
5.4681 12.0242 -11.1844
8.7567 11.9974 -11.1849
11.1928 11.9721 -11.1928
12.0966 12.0966 -11.237
-12.1227 -12.1227 -8.76166
-11.1849 -11.9974 -8.75672
-8.7551 -12.0204 -8.75506
-5.4699 -12.0459 -8.75552
-1.86438 -12.0576 -8.75595
1.86442 -12.0576 -8.75595
5.46991 -12.0459 -8.75552
8.75509 -12.0204 -8.75506
11.185 -11.9974 -8.75673
12.1227 -12.1227 -8.76165
-11.9974 -11.1849 -8.75672
-11.1062 -11.1062 -8.74089
-8.73574 -11.0912 -8.73573
-5.46499 -11.0886 -8.73446
-1.86354 -11.089 -8.73425
1.86352 -11.089 -8.73425
5.465 -11.0886 -8.73444
8.73578 -11.0912 -8.73573
11.1062 -11.1062 -8.7409
11.9975 -11.1849 -8.75673
-12.0204 -8.75509 -8.75507
-11.0912 -8.73574 -8.73573
-8.73022 -8.73021 -8.73023
-5.46513 -8.72881 -8.72876
-1.86399 -8.72858 -8.72859
1.86397 -8.72859 -8.72859
5.46512 -8.72879 -8.72875
8.73021 -8.73024 -8.73026
11.0912 -8.73573 -8.73574
12.0204 -8.75509 -8.75508
-12.0459 -5.4699 -8.75551
-11.0886 -5.46499 -8.73442
-8.72881 -5.46513 -8.72878
-5.46635 -5.46633 -8.72734
-1.86477 -5.46701 -8.72713
1.86475 -5.46702 -8.72711
5.46634 -5.4663 -8.7274
8.72874 -5.46517 -8.72875
11.0886 -5.46499 -8.73444
12.0459 -5.4699 -8.7555
-12.0576 -1.8644 -8.75597
-11.089 -1.86352 -8.73426
-8.72859 -1.86403 -8.72859
-5.46703 -1.86477 -8.72717
-1.86519 -1.86517 -8.72687
1.86515 -1.86519 -8.72691
5.46698 -1.86476 -8.72711
8.72854 -1.86405 -8.7286
11.089 -1.86353 -8.73427
12.0576 -1.86438 -8.75597
-12.0576 1.8644 -8.75596
-11.089 1.86349 -8.73424
-8.72858 1.86398 -8.7286
-5.46701 1.86473 -8.72709
-1.86516 1.86517 -8.72683
1.86517 1.86516 -8.7268
5.46704 1.86479 -8.72714
8.72858 1.86394 -8.72859
11.089 1.86352 -8.73424
12.0576 1.86438 -8.75596
-12.0458 5.46987 -8.75554
-11.0885 5.46499 -8.73445
-8.72878 5.4651 -8.72878
-5.46633 5.46631 -8.72736
-1.86479 5.46702 -8.72715
1.86475 5.467 -8.72715
5.46632 5.46635 -8.72732
8.72868 5.4651 -8.7288
11.0885 5.46498 -8.73445
12.0458 5.46987 -8.75555
-12.0204 8.75508 -8.7551
-11.0912 8.73578 -8.73573
-8.73019 8.73019 -8.73024
-5.46509 8.72874 -8.7288
-1.86398 8.72856 -8.72859
1.86398 8.72856 -8.72856
5.46513 8.72877 -8.72882
8.73019 8.73018 -8.7302
11.0912 8.73576 -8.73575
12.0204 8.75508 -8.75509
-11.9974 11.1849 -8.75675
-11.1061 11.1061 -8.74091
-8.73571 11.0912 -8.73573
-5.46496 11.0885 -8.73445
-1.86352 11.089 -8.73426
1.86349 11.089 -8.73427
5.465 11.0885 -8.73444
8.73578 11.0912 -8.73576
11.1061 11.1061 -8.74091
11.9974 11.1849 -8.75675
-12.1227 12.1227 -8.76167
-11.1849 11.9974 -8.75674
-8.75507 12.0204 -8.75509
-5.46987 12.0458 -8.75553
-1.86438 12.0576 -8.75597
1.86441 12.0576 -8.75596
5.4699 12.0459 -8.75552
8.75508 12.0204 -8.7551
11.1849 11.9974 -8.75675
12.1227 12.1227 -8.76168
-12.1476 -12.1476 -5.4668
-11.1844 -12.0242 -5.46808
-8.75548 -12.0459 -5.46989
-5.47188 -12.0703 -5.47192
-1.86537 -12.0817 -5.47289
1.86538 -12.0817 -5.47289
5.47188 -12.0703 -5.47193
8.75549 -12.0458 -5.46988
11.1844 -12.0242 -5.46808
12.1476 -12.1476 -5.4668
-12.0242 -11.1844 -5.46809
-11.1037 -11.1037 -5.4647
-8.7344 -11.0886 -5.46504
-5.46626 -11.0857 -5.46631
-1.86429 -11.086 -5.46694
1.86429 -11.086 -5.46695
5.46623 -11.0857 -5.46631
8.73438 -11.0885 -5.46498
11.1037 -11.1038 -5.4647
12.0241 -11.1844 -5.46806
-12.0459 -8.75547 -5.46988
-11.0886 -8.73441 -5.46498
-8.72879 -8.72877 -5.46516
-5.46633 -8.72731 -5.46629
-1.86477 -8.72713 -5.46701
1.86476 -8.72711 -5.46701
5.46633 -8.72732 -5.46628
8.72878 -8.72875 -5.46517
11.0886 -8.73443 -5.465
12.0459 -8.75548 -5.46991
-12.0703 -5.47188 -5.47193
-11.0857 -5.46627 -5.46628
-8.72731 -5.46631 -5.46632
-5.4675 -5.4675 -5.46753
-1.86549 -5.46823 -5.4682
1.86557 -5.46821 -5.4682
5.46759 -5.46753 -5.46757
8.72737 -5.46628 -5.46627
11.0857 -5.46628 -5.46631
12.0704 -5.47189 -5.47191
-12.0817 -1.86537 -5.47291
-11.086 -1.8643 -5.46697
-8.72713 -1.86477 -5.46702
-5.46823 -1.86552 -5.46824
-1.86596 -1.86598 -5.46887
1.86595 -1.86595 -5.4689
5.46821 -1.86551 -5.46818
8.72714 -1.86476 -5.46705
11.086 -1.8643 -5.46696
12.0817 -1.86535 -5.4729
-12.0817 1.8654 -5.47287
-11.086 1.86427 -5.46694
-8.72713 1.86477 -5.46701
-5.46823 1.86555 -5.46817
-1.86598 1.86596 -5.46883
1.86594 1.86593 -5.46882
5.4682 1.86554 -5.46824
8.72713 1.86476 -5.467
11.086 1.86427 -5.46694
12.0817 1.86536 -5.47289
-12.0703 5.47188 -5.47191
-11.0857 5.46623 -5.46634
-8.72732 5.46635 -5.46631
-5.46749 5.46758 -5.46754
-1.86553 5.46818 -5.46826
1.86561 5.46821 -5.46826
5.4676 5.46755 -5.46751
8.72739 5.46636 -5.46632
11.0857 5.46628 -5.46633
12.0704 5.47189 -5.47192
-12.0459 8.75549 -5.46989
-11.0886 8.73439 -5.46499
-8.7288 8.72876 -5.4652
-5.46634 8.72738 -5.46635
-1.86479 8.72715 -5.46701
1.86477 8.72716 -5.46699
5.46633 8.72735 -5.46638
8.72871 8.72877 -5.46514
11.0885 8.73435 -5.46502
12.0459 8.7555 -5.4699
-12.0242 11.1844 -5.46809
-11.1038 11.1037 -5.4647
-8.73442 11.0885 -5.46499
-5.46627 11.0857 -5.46633
-1.8643 11.086 -5.46694
1.86428 11.086 -5.46695
5.46623 11.0857 -5.4663
8.73439 11.0886 -5.46504
11.1037 11.1037 -5.4647
12.0242 11.1844 -5.46808
-12.1477 12.1477 -5.46681
-11.1844 12.0242 -5.46809
-8.75549 12.0459 -5.46991
-5.47189 12.0704 -5.4719
-1.86536 12.0817 -5.47291
1.86538 12.0817 -5.4729
5.47188 12.0704 -5.47192
8.75549 12.0459 -5.46989
11.1844 12.0242 -5.46809
12.1477 12.1477 -5.4668
-12.1588 -12.1588 -1.86272
-11.1853 -12.0363 -1.86349
-8.75595 -12.0576 -1.8644
-5.47288 -12.0817 -1.86541
-1.86587 -12.0929 -1.86588
1.8659 -12.0929 -1.86587
5.47284 -12.0817 -1.86544
8.75594 -12.0576 -1.86441
11.1853 -12.0363 -1.86352
12.1588 -12.1588 -1.86271
-12.0363 -11.1853 -1.86353
-11.1042 -11.1042 -1.86302
-8.73425 -11.089 -1.86348
-5.46694 -11.086 -1.86432
-1.86473 -11.0861 -1.86474
1.86476 -11.0862 -1.86473
5.46698 -11.086 -1.86435
8.73428 -11.089 -1.86352
11.1042 -11.1042 -1.86301
12.0363 -11.1853 -1.86351
-12.0576 -8.75596 -1.8644
-11.0889 -8.73425 -1.86352
-8.72855 -8.72858 -1.86404
-5.46699 -8.72713 -1.86472
-1.86517 -8.72687 -1.8652
1.86516 -8.7269 -1.86519
5.467 -8.72711 -1.86473
8.72851 -8.72858 -1.86407
11.0889 -8.73425 -1.86351
12.0575 -8.75596 -1.86438
-12.0817 -5.47291 -1.8654
-11.086 -5.46695 -1.86429
-8.72713 -5.46701 -1.86476
-5.46823 -5.4682 -1.86556
-1.86598 -5.46887 -1.86596
1.86595 -5.46888 -1.86596
5.4682 -5.46821 -1.86559
8.72716 -5.46703 -1.86472
11.086 -5.46694 -1.8643
12.0817 -5.47288 -1.86541
-12.0929 -1.86584 -1.86586
-11.0861 -1.86472 -1.86476
-8.72687 -1.86519 -1.86518
-5.46885 -1.86596 -1.86599
-1.86636 -1.86637 -1.86641
1.86638 -1.8664 -1.86642
5.46884 -1.86595 -1.86592
8.72683 -1.86519 -1.86522
11.0861 -1.86472 -1.86475
12.0929 -1.86587 -1.86587
-12.0929 1.86584 -1.86586
-11.0861 1.86476 -1.86473
-8.72686 1.86517 -1.86518
-5.46885 1.86596 -1.86597
-1.86635 1.86637 -1.86631
1.86637 1.86634 -1.8663
5.46884 1.86596 -1.86597
8.72681 1.86515 -1.86519
11.0861 1.86477 -1.86474
12.0928 1.86587 -1.86587
-12.0817 5.47288 -1.86541
-11.086 5.46698 -1.86436
-8.72712 5.46695 -1.86476
-5.46824 5.46821 -1.86556
-1.86597 5.4688 -1.86601
1.86594 5.4688 -1.866
5.46818 5.46822 -1.86554
8.72716 5.46695 -1.86479
11.086 5.46697 -1.86439
12.0817 5.47285 -1.86544
-12.0576 8.75588 -1.86444
-11.089 8.73424 -1.86353
-8.72855 8.72851 -1.86406
-5.46699 8.72716 -1.86477
-1.86516 8.72684 -1.86518
1.86517 8.72683 -1.86517
5.467 8.72716 -1.86485
8.72851 8.7285 -1.86404
11.089 8.73426 -1.86352
12.0575 8.75589 -1.86446
-12.0363 11.1853 -1.86351
-11.1042 11.1042 -1.86307
-8.73424 11.0889 -1.86355
-5.46694 11.086 -1.86436
-1.86473 11.0861 -1.86478
1.86476 11.0861 -1.86477
5.46697 11.086 -1.86435
8.73426 11.0889 -1.86354
11.1042 11.1042 -1.86306
12.0363 11.1853 -1.86351
-12.1588 12.1588 -1.86273
-11.1852 12.0363 -1.86351
-8.75595 12.0575 -1.86448
-5.47288 12.0817 -1.86543
-1.86588 12.0928 -1.86589
1.86588 12.0928 -1.86588
5.47287 12.0818 -1.86543
8.75593 12.0575 -1.86445
11.1852 12.0363 -1.86351
12.1588 12.1588 -1.86274
-12.1588 -12.1588 1.86265
-11.1853 -12.0363 1.86343
-8.75595 -12.0576 1.86438
-5.47288 -12.0817 1.86537
-1.86587 -12.0929 1.86587
1.86588 -12.0928 1.86587
5.47284 -12.0817 1.86536
8.75593 -12.0576 1.8644
11.1853 -12.0363 1.86345
12.1588 -12.1588 1.86266
-12.0363 -11.1852 1.86348
-11.1042 -11.1042 1.863
-8.73426 -11.0889 1.86351
-5.46694 -11.086 1.86424
-1.86474 -11.0861 1.86472
1.86476 -11.0861 1.86472
5.46699 -11.086 1.86427
8.73427 -11.0889 1.86356
11.1042 -11.1042 1.86301
12.0363 -11.1853 1.86344
-12.0576 -8.75595 1.86438
-11.089 -8.73426 1.86354
-8.72856 -8.72857 1.86392
-5.46702 -8.72712 1.86479
-1.86517 -8.72687 1.86516
1.86519 -8.7268 1.86516
5.46698 -8.72713 1.86482
8.72854 -8.72854 1.86391
11.089 -8.73427 1.86352
12.0576 -8.75596 1.86435
-12.0817 -5.47288 1.86532
-11.086 -5.46695 1.86425
-8.72711 -5.46698 1.86477
-5.46822 -5.46821 1.86544
-1.86598 -5.46884 1.86599
1.86596 -5.46881 1.86598
5.46817 -5.46825 1.86547
8.72715 -5.46697 1.86478
11.0859 -5.46695 1.86424
12.0817 -5.47288 1.86535
-12.0929 -1.86584 1.86585
-11.0861 -1.86474 1.8647
-8.72686 -1.86517 1.86514
-5.46885 -1.86598 1.86594
-1.86636 -1.86638 1.86635
1.86637 -1.86628 1.8663
5.46884 -1.866 1.86596
8.72685 -1.86518 1.86511
11.0861 -1.86475 1.86469
12.0929 -1.86585 1.86585
-12.0929 1.86587 1.86587
-11.0861 1.86475 1.86472
-8.72685 1.8652 1.86514
-5.46883 1.86593 1.86598
-1.86636 1.86638 1.86641
1.86639 1.86643 1.86644
5.46887 1.8659 1.86594
8.72689 1.86523 1.86519
11.0861 1.86474 1.86473
12.0929 1.86589 1.86587
-12.0817 5.47289 1.86532
-11.086 5.46698 1.86424
-8.72712 5.467 1.86479
-5.46823 5.46818 1.86551
-1.86597 5.46883 1.86592
1.86595 5.4689 1.86592
5.46818 5.46814 1.86558
8.72713 5.46703 1.86474
11.086 5.46697 1.86423
12.0817 5.47289 1.86535
-12.0576 8.75591 1.86431
-11.0889 8.73424 1.8635
-8.72856 8.72854 1.86391
-5.46701 8.72715 1.86475
-1.86516 8.72682 1.86516
1.86519 8.72695 1.86517
5.46697 8.72706 1.86469
8.7285 8.72861 1.86396
11.089 8.73424 1.86354
12.0575 8.75591 1.86433
-12.0363 11.1853 1.86342
-11.1042 11.1042 1.86297
-8.73426 11.0889 1.86351
-5.46694 11.086 1.86422
-1.86474 11.0861 1.86471
1.86475 11.0862 1.86471
5.46696 11.0859 1.86426
8.73424 11.089 1.86346
11.1042 11.1042 1.86293
12.0363 11.1853 1.86341
-12.1588 12.1588 1.86263
-11.1852 12.0363 1.86344
-8.75596 12.0576 1.86434
-5.47286 12.0817 1.86536
-1.86588 12.0928 1.86587
1.86588 12.0929 1.86586
5.47286 12.0816 1.86534
8.75592 12.0576 1.86432
11.1852 12.0363 1.86341
12.1588 12.1588 1.86266
-12.1477 -12.1477 5.46672
-11.1844 -12.0242 5.46803
-8.75549 -12.0459 5.46983
-5.47188 -12.0703 5.47182
-1.86537 -12.0817 5.47287
1.86539 -12.0817 5.47286
5.47191 -12.0703 5.47182
8.75548 -12.0459 5.46986
11.1844 -12.0242 5.46802
12.1477 -12.1477 5.46673
-12.0242 -11.1844 5.46803
-11.1038 -11.1038 5.4646
-8.73441 -11.0886 5.465
-5.46626 -11.0857 5.46621
-1.8643 -11.086 5.46691
1.86427 -11.086 5.46691
5.46623 -11.0857 5.4662
8.73439 -11.0886 5.46501
11.1037 -11.1038 5.4646
12.0241 -11.1844 5.46803
-12.0459 -8.7555 5.46986
-11.0886 -8.73443 5.46498
-8.72878 -8.72878 5.46506
-5.46631 -8.72733 5.46639
-1.86478 -8.7271 5.46695
1.86476 -8.72714 5.46694
5.46634 -8.72732 5.46637
8.72877 -8.72879 5.46502
11.0885 -8.73442 5.46501
12.0459 -8.75549 5.46986
-12.0703 -5.4719 5.47182
-11.0857 -5.46627 5.46627
-8.72732 -5.46632 5.46637
-5.46749 -5.46749 5.46741
-1.86555 -5.46821 5.46824
1.86558 -5.46823 5.46824
5.46756 -5.46749 5.46747
8.72737 -5.46632 5.46639
11.0857 -5.46626 5.46621
12.0704 -5.47189 5.47183
-12.0817 -1.86537 5.47285
-11.086 -1.86429 5.46686
-8.72711 -1.86477 5.46694
-5.46822 -1.86551 5.46824
-1.86596 -1.86597 5.46881
1.86595 -1.866 5.46878
5.46821 -1.86551 5.46824
8.72714 -1.86477 5.46691
11.086 -1.8643 5.46689
12.0817 -1.86539 5.47285
-12.0817 1.86537 5.47285
-11.086 1.86426 5.4669
-8.72711 1.86475 5.46693
-5.46823 1.86555 5.46819
-1.86597 1.86595 5.46888
1.86594 1.86591 5.46888
5.46816 1.86557 5.46816
8.72711 1.86475 5.46692
11.0859 1.86427 5.46695
12.0817 1.86535 5.47285
-12.0703 5.47187 5.47187
-11.0857 5.46623 5.46619
-8.7273 5.46631 5.46637
-5.46747 5.46756 5.46751
-1.86552 5.46822 5.46814
1.8656 5.46816 5.46821
5.46756 5.4676 5.46753
8.72739 5.46631 5.46636
11.0857 5.46626 5.46618
12.0704 5.47193 5.47184
-12.0459 8.75547 5.46985
-11.0886 8.73435 5.46498
-8.72878 8.72874 5.46503
-5.46632 8.72735 5.46634
-1.86478 8.72714 5.46693
1.86475 8.72711 5.46696
5.46635 8.72739 5.46628
8.72877 8.72871 5.46506
11.0886 8.73437 5.46499
12.0458 8.75553 5.46985
-12.0242 11.1844 5.46807
-11.1038 11.1037 5.46458
-8.7344 11.0885 5.46499
-5.46626 11.0857 5.4662
-1.86429 11.086 5.46691
1.8643 11.0859 5.46689
5.46627 11.0858 5.46621
8.73437 11.0885 5.46498
11.1037 11.1037 5.46462
12.0242 11.1844 5.46807
-12.1477 12.1477 5.46673
-11.1844 12.0241 5.46805
-8.75549 12.0459 5.46983
-5.47189 12.0704 5.47183
-1.86537 12.0817 5.47283
1.8654 12.0817 5.47283
5.47192 12.0704 5.47183
8.75554 12.0458 5.46984
11.1844 12.0242 5.46805
12.1477 12.1477 5.46672
-12.1227 -12.1227 8.76164
-11.1849 -11.9974 8.75667
-8.75506 -12.0204 8.75498
-5.46988 -12.0459 8.75543
-1.86436 -12.0576 8.75591