# vtk DataFile Version 3.0 
Lennard-Jones particle simulation 
ASCII 
DATASET UNSTRUCTURED_GRID 
POINTS 1000 float 
-9.85177 -9.85177 -9.85178
-7.79904 -9.78378 -9.78378
-4.80934 -9.79782 -9.79782
-1.24728 -9.81254 -9.81256
2.55495 -9.81938 -9.81939
6.44507 -9.81938 -9.81938
10.2473 -9.81255 -9.81256
13.8093 -9.79781 -9.79782
16.7991 -9.78378 -9.78379
18.8518 -9.85178 -9.85178
-9.78378 -7.79905 -9.78378
-7.76989 -7.76989 -9.69666
-4.80453 -7.76612 -9.70899
-1.2477 -7.76675 -9.72432
2.55449 -7.7677 -9.73158
6.44547 -7.76769 -9.73158
10.2477 -7.76675 -9.72432
13.8045 -7.76612 -9.70898
16.7699 -7.76988 -9.69666
18.7838 -7.79905 -9.78378
-9.79782 -4.80935 -9.79782
-7.76612 -4.80453 -9.70898
-4.80509 -4.80508 -9.71967
-1.24979 -4.80656 -9.73412
2.55363 -4.80737 -9.74118
6.4464 -4.80737 -9.74118
10.2498 -4.80656 -9.73412
13.8051 -4.80508 -9.71968
16.7661 -4.80452 -9.709
18.7978 -4.80933 -9.79783
-9.81255 -1.24728 -9.81256
-7.76676 -1.24771 -9.72432
-4.80657 -1.24977 -9.73416
-1.25179 -1.25179 -9.74802
2.55273 -1.25275 -9.75485
6.44727 -1.25275 -9.75485
10.2518 -1.25179 -9.74806
13.8066 -1.24978 -9.73412
16.7668 -1.24769 -9.72431
18.8126 -1.24729 -9.81255
-9.81938 2.55497 -9.81939
-7.76771 2.5545 -9.73159
-4.80738 2.55363 -9.74117
-1.25276 2.55273 -9.75488
2.5523 2.55231 -9.76152
6.4477 2.55231 -9.76154
10.2527 2.55274 -9.75483
13.8073 2.55363 -9.7412
16.7677 2.5545 -9.73159
18.8194 2.55496 -9.81938
-9.81937 6.44503 -9.81937
-7.76769 6.4455 -9.73157
-4.80737 6.44639 -9.74118
-1.25275 6.44726 -9.7548
2.55232 6.44768 -9.7615
6.4477 6.44769 -9.76149
10.2528 6.44726 -9.75484
13.8074 6.44639 -9.74117
16.7677 6.44551 -9.73158
18.8194 6.44505 -9.81938
-9.81256 10.2473 -9.81257
-7.76677 10.2477 -9.72434
-4.80659 10.2498 -9.73415
-1.2518 10.2518 -9.74805
2.55272 10.2527 -9.75486
6.44724 10.2527 -9.75487
10.2518 10.2518 -9.74802
13.8066 10.2498 -9.73416
16.7668 10.2477 -9.72433
18.8125 10.2473 -9.81256
-9.79782 13.8093 -9.79783
-7.76612 13.8045 -9.70899
-4.80509 13.8051 -9.71968
-1.24979 13.8066 -9.73416
2.55363 13.8074 -9.74117
6.4464 13.8074 -9.74117
10.2498 13.8066 -9.73417
13.8051 13.8051 -9.71966
16.7661 13.8045 -9.70899
18.7978 13.8093 -9.79783
-9.78378 16.7991 -9.78379
-7.76989 16.7699 -9.69667
-4.80453 16.7661 -9.70899
-1.24771 16.7668 -9.72433
2.55451 16.7677 -9.7316
6.44548 16.7677 -9.73159
10.2477 16.7668 -9.72432
13.8045 16.7661 -9.709
16.7699 16.7699 -9.69667
18.7838 16.7991 -9.78379
-9.85178 18.8518 -9.85179
-7.79906 18.7838 -9.78379
-4.80934 18.7978 -9.79783
-1.24729 18.8125 -9.81256
2.55496 18.8194 -9.81939
6.44506 18.8194 -9.81939
10.2473 18.8125 -9.81256
13.8093 18.7978 -9.79783
16.7991 18.7838 -9.78379
18.8518 18.8518 -9.85179
-9.78378 -9.78378 -7.79906
-7.76989 -9.69666 -7.76988
-4.80453 -9.70899 -7.76612
-1.2477 -9.72431 -7.76677
2.5545 -9.73159 -7.7677
6.44547 -9.73159 -7.7677
10.2477 -9.72432 -7.76676
13.8045 -9.70899 -7.76612
16.7699 -9.69666 -7.7699
18.7838 -9.78378 -7.79906
-9.69666 -7.76989 -7.76989
-7.72189 -7.72189 -7.72189
-4.79157 -7.71375 -7.71374
-1.24447 -7.71297 -7.71297
2.55506 -7.71353 -7.71352
6.44495 -7.71353 -7.71352
10.2444 -7.71297 -7.71297
13.7916 -7.71375 -7.71374
16.7219 -7.72189 -7.72189
18.6967 -7.76989 -7.76989
-9.709 -4.80452 -7.76612
-7.71376 -4.79157 -7.71374
-4.78973 -4.78971 -7.70501
-1.24548 -4.79006 -7.70396
2.55445 -4.79047 -7.70452
6.44553 -4.79046 -7.70452
10.2455 -4.79007 -7.70396
13.7897 -4.78971 -7.70502
16.7137 -4.79158 -7.71375
18.709 -4.80453 -7.76613
-9.7243 -1.2477 -7.76676
-7.71295 -1.24445 -7.71297
-4.79008 -1.24547 -7.70399
-1.247 -1.247 -7.70278
2.55374 -1.24774 -7.70325
6.44627 -1.24774 -7.70325
10.247 -1.247 -7.70282
13.7901 -1.24547 -7.70395
16.713 -1.24446 -7.71296
18.7243 -1.24771 -7.76675
-9.73158 2.5545 -7.76771
-7.71352 2.55507 -7.71354
-4.79046 2.55447 -7.70452
-1.24775 2.55371 -7.70328
2.55334 2.55334 -7.70362
6.44668 2.55335 -7.70363
10.2478 2.5537 -7.70324
13.7905 2.55448 -7.70454
16.7135 2.55507 -7.71353
18.7316 2.5545 -7.7677
-9.73161 6.4455 -7.76769
-7.71356 6.44493 -7.71352
-4.79049 6.44553 -7.70453
-1.24776 6.44629 -7.70321
2.55332 6.44668 -7.70361
6.44667 6.44667 -7.70359
10.2478 6.44629 -7.70326
13.7905 6.44551 -7.70451
16.7135 6.44492 -7.71353
18.7316 6.44549 -7.7677
-9.72431 10.2477 -7.76678
-7.71295 10.2445 -7.71299
-4.79008 10.2455 -7.70398
-1.247 10.247 -7.70281
2.55373 10.2478 -7.70327
6.44627 10.2478 -7.70328
10.247 10.247 -7.70278
13.7901 10.2455 -7.704
16.713 10.2445 -7.71298
18.7243 10.2477 -7.76678
-9.709 13.8045 -7.76613
-7.71376 13.7916 -7.71374
-4.78972 13.7897 -7.70502
-1.24547 13.7901 -7.70399
2.55445 13.7905 -7.70451
6.44552 13.7905 -7.70452
10.2455 13.7901 -7.70401
13.7897 13.7897 -7.705
16.7137 13.7916 -7.71376
18.709 13.8045 -7.76613
-9.69667 16.7699 -7.7699
-7.7219 16.7219 -7.72191
-4.79158 16.7137 -7.71375
-1.24448 16.713 -7.71299
2.55506 16.7135 -7.71354
6.44495 16.7136 -7.71354
10.2444 16.713 -7.71297
13.7916 16.7137 -7.71376
16.7219 16.7219 -7.7219
18.6967 16.7699 -7.7699
-9.78379 18.7838 -7.79906
-7.7699 18.6967 -7.7699
-4.80454 18.709 -7.76614
-1.24771 18.7243 -7.76677
2.55449 18.7316 -7.76771
6.44546 18.7316 -7.76771
10.2477 18.7243 -7.76677
13.8045 18.709 -7.76614
16.7699 18.6967 -7.7699
18.7838 18.7838 -7.79906
-9.79783 -9.79783 -4.80936
-7.76613 -9.70901 -4.80453
-4.8051 -9.71966 -4.80508
-1.2498 -9.73416 -4.80658
2.55362 -9.74119 -4.80737
6.4464 -9.74119 -4.80737
10.2498 -9.73414 -4.80658
13.8051 -9.71968 -4.80507
16.7661 -9.709 -4.80454
18.7978 -9.79783 -4.80935
-9.70901 -7.76613 -4.80453
-7.71376 -7.71377 -4.79157
-4.78973 -7.70499 -4.78972
-1.24548 -7.704 -4.79009
2.55445 -7.70452 -4.79046
6.44553 -7.70452 -4.79046
10.2455 -7.70398 -4.79008
13.7897 -7.70502 -4.78971
16.7138 -7.71376 -4.79158
18.709 -7.76613 -4.80454
-9.71966 -4.8051 -4.80508
-7.70499 -4.78973 -4.78972
-4.78751 -4.78751 -4.78753
-1.24633 -4.78774 -4.7877
2.55391 -4.78808 -4.78809
6.44607 -4.78809 -4.78808
10.2463 -4.78772 -4.78769
13.7875 -4.78753 -4.78755
16.705 -4.78972 -4.78973
18.7197 -4.8051 -4.80509
-9.73416 -1.24979 -4.80657
-7.704 -1.24548 -4.79006
-4.78774 -1.24634 -4.78771
-1.24778 -1.24777 -4.78788
2.55318 -1.24852 -4.78823
6.4468 -1.24853 -4.78822
10.2478 -1.24775 -4.78793
13.7877 -1.24637 -4.78769
16.704 -1.24548 -4.79007
18.7341 -1.2498 -4.80656
-9.74119 2.55361 -4.80739
-7.70454 2.55447 -4.79047
-4.78809 2.55388 -4.78809
-1.24853 2.55318 -4.78826
2.5528 2.55282 -4.78854
6.44717 2.5528 -4.78856
10.2485 2.55319 -4.78822
13.788 2.55387 -4.78809
16.7045 2.55446 -4.79048
18.7412 2.55362 -4.80739
-9.74121 6.44639 -4.80737
-7.70454 6.44551 -4.79046
-4.78808 6.44608 -4.7881
-1.24852 6.44679 -4.7882
2.55282 6.44719 -4.7885
6.44719 6.44718 -4.78848
10.2485 6.44683 -4.78824
13.7881 6.44605 -4.78808
16.7045 6.44553 -4.79046
18.7412 6.44637 -4.80738
-9.73412 10.2498 -4.80659
-7.70396 10.2455 -4.79009
-4.78771 10.2463 -4.78771
-1.24777 10.2478 -4.7879
2.55317 10.2485 -4.78825
6.4468 10.2485 -4.78825
10.2478 10.2478 -4.78787
13.7876 10.2463 -4.78773
16.7039 10.2455 -4.79009
18.7341 10.2498 -4.8066
-9.71964 13.8051 -4.8051
-7.70498 13.7897 -4.78971
-4.78749 13.7875 -4.78753
-1.2463 13.7877 -4.78773
2.55392 13.7881 -4.78808
6.44608 13.7881 -4.78807
10.2463 13.7877 -4.78775
13.7875 13.7875 -4.78751
16.705 13.7897 -4.78973
18.7197 13.8051 -4.8051
-9.70898 16.7661 -4.80455
-7.71374 16.7137 -4.79159
-4.7897 16.705 -4.78972
-1.24546 16.7039 -4.79009
2.55447 16.7045 -4.79048
6.44551 16.7045 -4.79048
10.2455 16.7039 -4.79008
13.7897 16.705 -4.78974
16.7137 16.7138 -4.79159
18.709 16.7661 -4.80455
-9.7978 18.7978 -4.80936
-7.7661 18.709 -4.80455
-4.80508 18.7197 -4.8051
-1.24977 18.7341 -4.80659
2.55362 18.7412 -4.80738
6.4464 18.7412 -4.80738
10.2498 18.7341 -4.80658
13.8051 18.7197 -4.8051
16.7661 18.709 -4.80455
18.7978 18.7978 -4.80937
-9.81252 -9.81252 -1.24732
-7.76673 -9.72429 -1.24771
-4.80654 -9.73413 -1.24979
-1.25178 -9.74801 -1.25181
2.55275 -9.75485 -1.25275
6.44726 -9.75484 -1.25275
10.2518 -9.74802 -1.25182
13.8065 -9.73412 -1.24978
16.7667 -9.72429 -1.24772
18.8125 -9.81253 -1.24731
-9.72429 -7.76673 -1.24772
-7.71293 -7.71293 -1.24447
-4.79005 -7.70397 -1.24552
-1.24699 -7.70278 -1.24703
2.55374 -7.70325 -1.24775
6.44626 -7.70325 -1.24775
10.247 -7.70279 -1.24703
13.79 -7.70395 -1.24547
16.7129 -7.71294 -1.24448
18.7243 -7.76673 -1.2477
-9.73414 -4.80654 -1.24978
-7.70398 -4.79005 -1.24548
-4.78772 -4.78771 -1.24636
-1.24777 -4.78786 -1.24774
2.55318 -4.78823 -1.24852
6.44681 -4.78822 -1.24852
10.2478 -4.78787 -1.24773
13.7877 -4.78769 -1.24637
16.704 -4.79006 -1.24549
18.7342 -4.80655 -1.2498
-9.748 -1.25178 -1.25181
-7.70277 -1.24699 -1.24701
-4.78786 -1.24776 -1.24777
-1.24917 -1.24917 -1.24919
2.5525 -1.24995 -1.24993
6.44756 -1.24994 -1.24993
10.2492 -1.24919 -1.24923
13.7879 -1.24773 -1.24773
16.7028 -1.24701 -1.24703
18.748 -1.25178 -1.2518
-9.75484 2.55275 -1.25277
-7.70325 2.55373 -1.24777
-4.78823 2.55318 -1.24853
-1.24995 2.55248 -1.24996
2.55208 2.55207 -1.25067
6.4479 2.55209 -1.25069
10.2499 2.55249 -1.24992
13.7882 2.55319 -1.24855
16.7033 2.55373 -1.24776
18.7549 2.55277 -1.25276
-9.75484 6.44727 -1.25274
-7.70325 6.44625 -1.24774
-4.78823 6.44682 -1.24852
-1.24995 6.44754 -1.24991
2.55207 6.44791 -1.25063
6.4479 6.44789 -1.25062
10.2499 6.44753 -1.24996
13.7882 6.44681 -1.24851
16.7032 6.44625 -1.24775
18.7549 6.44725 -1.25276
-9.74801 10.2518 -1.2518
-7.70278 10.247 -1.24705
-4.78787 10.2478 -1.24775
-1.24916 10.2492 -1.2492
2.55248 10.2499 -1.24998
6.44759 10.2499 -1.24997
10.2492 10.2492 -1.24918
13.7879 10.2478 -1.24777
16.7028 10.247 -1.24704
18.7481 10.2518 -1.25181
-9.73415 13.8065 -1.24979
-7.70398 13.79 -1.24548
-4.78773 13.7877 -1.24639
-1.24778 13.7879 -1.24779
2.55317 13.7882 -1.24852
6.44682 13.7882 -1.2485
10.2478 13.7879 -1.24781
13.7877 13.7877 -1.24635
16.704 13.79 -1.24551
18.7341 13.8066 -1.2498
-9.7243 16.7668 -1.24772
-7.71294 16.7129 -1.24448
-4.79006 16.704 -1.24548
-1.247 16.7028 -1.24704
2.55373 16.7032 -1.24775
6.44625 16.7033 -1.24775
10.247 16.7028 -1.24702
13.79 16.704 -1.24552
[...]
POINT_DATA 1000
SCALARS mass float 
LOOKUP_TABLE default 
1
1
1
1
1
1
1
1
1
1
1
1
1
1
1
1
1
1
1
1
1
1
1
1
1
1
1
1
1
1
1
1
1
1
1
1
1
1
1
1
1
1
1
1
1
1
1
1
1
1
1
1
1
1
1
1
1
1
1
1
1
1
1
1
1
1
1
1
1
1
1
1
1
1
1
1
1
1
1
1
1
1
1
1
1
1
1
1
1
1
1
1
1
1
1
1
1
1
1
1
1
1
1
1
1
1
1
1
1
1
1
1
1
1
1
1
1
1
1
1
1
1
1
1
1
1
1
1
1
1
1
1
1
1
1
1
1
1
1
1
1
1
1
1
1
1
1
1
1
1
1
1
1
1
1
1
1
1
1
1
1
1
1
1
1
1
1
1
1
1
1
1
1
1
1
1
1
1
1
1
1
1
1
1
1
1
1
1
1
1
1
1
1
1
1
1
1
1
1
1
1
1
1
1
1
1
1
1
1
1
1
1
1
1
1
1
1
1
1
1
1
1
1
1
1
1
1
1
1
1
1
1
1
1
1
1
1
1
1
1
1
1
1
1
1
1
1
1
1
1
1
1
1
1
1
1
1
1
1
1
1
1
1
1
1
1
1
1
1
1
1
1
1
1
1
1
1
1
1
1
1
1
1
1
1
1
1
1
1
1
1
1
1
1
1
1
1
1
1
1
1
1
1
1
1
1
1
1
1
1
1
1
1
1
1
1
1
1
1
1
1
1
1
1
1
1
1
1
1
1
1
1
1
1
1
1
1
1
1
1
1
1
1
1
1
1
1
1
1
1
1
1
1
1
1
1
1
1
1
1
1
1
1
1
1
1
1
1
1
1
1
1
1
1
1
1
1
1
1
1
1
1
1
1
1
1
1
1
1
1
1
1
1
1
1
1
1
1
1
1
1
1
1
1
1
1
1
1
1
1
1
1
1
1
1
1
1
1
1
1
1
1
1
1
1
1
1
1
1
1
1
1
1
1
1
1
1
1
1
1
1
1
1
1
1
1
1
1
1
1
1
1
1
1
1
1
1
1
1
1
1
1
1
1
1
1
1
1
1
1
1
1
1
1
1
1
1
1
1
1
1
1
1
1
1
1
1
1
1
1
1
1
1
1
1
1
1
1
1
1
1
1
1
1
1
1
1
1
1
1
1
1
1
1
1
1
1
1
1
1
1
1
1
1
1
1
1
1
1
1
1
1
1
1
1
1
1
1
1
1
1
1
1
1
1
1
1
1
1
1
1
1
1
1
1
1
1
1
1
1
1
1
1
1
1
1
1
1
1
1
1
1
1
1
1
1
1
1
1
1
1
1
1
1
1
1
1
1
1
1
1
1
1
1
1
1
1
1
1
1
1
1
1
1
1
1
1
1
1
1
1
1
1
1
1
1
1
1
1
1
1
1
1
1
1
1
1
1
1
1
1
1
1
1
1
1
1
1
1
1
1
1
1
1
1
1
1
1
1
1
1
1
1
1
1
1
1
1
1
1
1
1
1
1
1
1
1
1
1
1
1
1
1
1
1
1
1
1
1
1
1
1
1
1
1
1
1
1
1
1
1
1
1
1
1
1
1
1
1
1
1
1
1
1
1
1
1
1
1
1
1
1
1
1
1
1
1
1
1
1
1
1
1
1
1
1
1
1
1
1
1
1
1
1
1
1
1
1
1
1
1
1
1
1
1
1
1
1
1
1
1
1
1
1
1
1
1
1
1
1
1
1
1
1
1
1
1
1
1
1
1
1
1
1
1
1
1
1
1
1
1
1
1
1
1
1
1
1
1
1
1
1
1
1
1
1
1
1
1
1
1
1
1
1
1
1
1
1
1
1
1
1
1
1
1
1
1
1
1
1
1
1
1
1
1
1
1
1
1
1
1
1
1
1
1
1
1
1
1
1
1
1
1
1
1
1
1
1
1
1
1
1
1
1
1
1
1
1
1
1
1
1
1
1
1
1
1
1
1
1
1
1
1
1
1
1
1
1
1
1
1
1
1
1
1
1
1
1
1
1
1
1
1
1
1
1
1
1
1
1
1
1
1
1
1
1
1
1
1
1
1
1
1
1
1
1
1
1
1
1
1
1
1
1
1
1
1
1
1
1
1
1
1
1
1
1
1
1
1
1
1
1
1
1
1
1
1
1
1
1
1
1
1
1
1
1
1
1
1
1
1
1
1
1
1
1
1
1
1
1
1
1
1
1
1
1
1
1
1
1
1
1
1
1
1
1
1
1
1
1
1
1
1
1
1
1
1
1
1
1
VECTORS velocity float 
-12.0588 -12.0588 -12.0588
-11.3428 -11.9483 -11.9483
-8.77815 -11.9863 -11.9863
-5.4701 -12.0172 -12.0172
-1.86359 -12.0304 -12.0304
1.8636 -12.0303 -12.0304
5.47015 -12.0172 -12.0172
8.77814 -11.9863 -11.9863
11.3428 -11.9483 -11.9483
12.0588 -12.0588 -12.0588
-11.9483 -11.3428 -11.9483
-11.309 -11.309 -11.8146
-8.77537 -11.2904 -11.8528
-5.47164 -11.2856 -11.8864
-1.86443 -11.2849 -11.9008
1.86438 -11.2849 -11.9008
5.47165 -11.2856 -11.8864
8.77536 -11.2904 -11.8528
11.309 -11.309 -11.8146
11.9483 -11.3428 -11.9483
-11.9863 -8.77816 -11.9863
-11.2904 -8.77536 -11.8528
-8.7715 -8.77149 -11.8867
-5.47295 -8.77127 -11.9181
-1.86517 -8.77152 -11.9319
1.86521 -8.77152 -11.9319
5.47297 -8.77126 -11.9181
8.77148 -8.77149 -11.8867
11.2904 -8.77535 -11.8528
11.9863 -8.77813 -11.9863
-12.0172 -5.4701 -12.0172
-11.2856 -5.47165 -11.8864
-8.77127 -5.47293 -11.9181
-5.47479 -5.47479 -11.9482
-1.86614 -5.47572 -11.9615
1.86614 -5.47572 -11.9615
5.4748 -5.47479 -11.9483
8.77126 -5.47294 -11.9181
11.2857 -5.47163 -11.8864
12.0172 -5.47012 -12.0172
-12.0304 -1.86355 -12.0304
-11.2849 -1.86441 -11.9008
-8.77154 -1.86517 -11.9319
-5.47574 -1.86614 -11.9616
-1.86662 -1.86661 -11.9746
1.86663 -1.86661 -11.9746
5.47569 -1.86613 -11.9615
8.77149 -1.86517 -11.9319
11.2849 -1.86442 -11.9008
12.0303 -1.86357 -12.0304
-12.0303 1.86356 -12.0303
-11.2849 1.86442 -11.9008
-8.77153 1.8652 -11.9319
-5.47573 1.86613 -11.9615
-1.86658 1.86659 -11.9745
1.86661 1.8666 -11.9745
5.47574 1.86613 -11.9615
8.77155 1.8652 -11.9319
11.2849 1.86442 -11.9008
12.0304 1.86358 -12.0303
-12.0172 5.47017 -12.0172
-11.2856 5.47166 -11.8864
-8.77129 5.47301 -11.9181
-5.4748 5.47476 -11.9483
-1.86615 5.47572 -11.9616
1.8661 5.4757 -11.9616
5.47476 5.47477 -11.9482
8.77127 5.47294 -11.9182
11.2856 5.47163 -11.8864
12.0172 5.47013 -12.0172
-11.9863 8.77813 -11.9863
-11.2904 8.77534 -11.8528
-8.7715 8.77149 -11.8867
-5.47295 8.77128 -11.9182
-1.86516 8.77154 -11.9319
1.86521 8.77154 -11.9319
5.47296 8.77128 -11.9182
8.77149 8.7715 -11.8867
11.2904 8.77538 -11.8528
11.9863 8.77815 -11.9863
-11.9483 11.3428 -11.9483
-11.309 11.309 -11.8146
-8.77537 11.2904 -11.8528
-5.47165 11.2856 -11.8864
-1.8644 11.2849 -11.9008
1.86439 11.2849 -11.9008
5.47167 11.2856 -11.8864
8.77535 11.2904 -11.8528
11.309 11.309 -11.8146
11.9483 11.3428 -11.9483
-12.0588 12.0588 -12.0588
-11.3428 11.9483 -11.9483
-8.77815 11.9863 -11.9863
-5.47011 12.0172 -12.0172
-1.86358 12.0304 -12.0304
1.86359 12.0303 -12.0304
5.47013 12.0172 -12.0172
8.77815 11.9863 -11.9863
11.3428 11.9483 -11.9483
12.0588 12.0588 -12.0588
-11.9483 -11.9483 -11.3428
-11.309 -11.8146 -11.309
-8.77537 -11.8528 -11.2904
-5.47164 -11.8864 -11.2856
-1.86442 -11.9008 -11.2849
1.86437 -11.9008 -11.2849
5.47167 -11.8864 -11.2856
8.77534 -11.8528 -11.2904
11.309 -11.8146 -11.309
11.9483 -11.9483 -11.3428
-11.8146 -11.309 -11.309
-11.2488 -11.2488 -11.2488
-8.7636 -11.2222 -11.2221
-5.46926 -11.2149 -11.2149
-1.86417 -11.2135 -11.2134
1.86418 -11.2134 -11.2134
5.46921 -11.2149 -11.2149
8.76365 -11.2222 -11.2221
11.2488 -11.2488 -11.2488
11.8146 -11.309 -11.309
-11.8528 -8.77536 -11.2904
-11.2222 -8.7636 -11.2221
-8.7558 -8.75578 -11.1961
-5.46889 -8.75374 -11.189
-1.86453 -8.75337 -11.1879
1.86451 -8.75336 -11.1879
5.4689 -8.75375 -11.189
8.7558 -8.75578 -11.1961
11.2221 -8.76361 -11.2222
11.8528 -8.77537 -11.2904
-11.8864 -5.47164 -11.2856
-11.2148 -5.46923 -11.2149
-8.75376 -5.46888 -11.1891
-5.47 -5.47 -11.1821
-1.86522 -5.47062 -11.1808
1.86524 -5.47062 -11.1808
5.47002 -5.47 -11.1821
8.75377 -5.46888 -11.189
11.2149 -5.46924 -11.2148
11.8864 -5.47165 -11.2856
-11.9008 -1.86441 -11.2849
-11.2134 -1.86417 -11.2135
-8.75336 -1.86451 -11.1879
-5.47062 -1.86527 -11.1809
-1.86565 -1.86566 -11.1795
1.86568 -1.86564 -11.1795
5.47068 -1.86528 -11.1808
8.75337 -1.86449 -11.1879
11.2135 -1.86416 -11.2135
11.9008 -1.86441 -11.2849
-11.9008 1.86441 -11.2849
-11.2135 1.86416 -11.2134
-8.7534 1.8645 -11.1879
-5.47063 1.86527 -11.1808
-1.86568 1.86568 -11.1795
1.86568 1.86567 -11.1795
5.47066 1.86526 -11.1808
8.75338 1.86448 -11.1879
11.2134 1.86415 -11.2135
11.9008 1.8644 -11.2849
-11.8864 5.47167 -11.2856
-11.2148 5.46926 -11.2149
-8.75377 5.46888 -11.1891
-5.47 5.46999 -11.1821
-1.86523 5.47066 -11.1809
1.86525 5.47067 -11.1809
5.47002 5.47 -11.1821
8.75378 5.4689 -11.1891
11.2149 5.46925 -11.2149
11.8864 5.47167 -11.2856
-11.8528 8.77535 -11.2904
-11.2222 8.76363 -11.2222
-8.75579 8.75583 -11.1961
-5.46888 8.75379 -11.1891
-1.86453 8.75338 -11.1879
1.86448 8.75339 -11.1879
5.46888 8.75378 -11.1891
8.75583 8.75584 -11.196
11.2221 8.76363 -11.2222
11.8528 8.77535 -11.2904
-11.8146 11.309 -11.309
-11.2488 11.2488 -11.2488
-8.76361 11.2221 -11.2222
-5.46927 11.2149 -11.2149
-1.86417 11.2135 -11.2135
1.86418 11.2135 -11.2135
5.46921 11.2149 -11.2149
8.76365 11.2221 -11.2222
11.2488 11.2488 -11.2488
11.8146 11.309 -11.309
-11.9483 11.9483 -11.3428
-11.309 11.8146 -11.309
-8.77538 11.8528 -11.2904
-5.47165 11.8864 -11.2856
-1.86443 11.9008 -11.2849
1.86437 11.9008 -11.2849
5.47167 11.8864 -11.2856
8.77535 11.8528 -11.2904
11.309 11.8146 -11.309
11.9483 11.9483 -11.3428
-11.9863 -11.9863 -8.77816
-11.2904 -11.8528 -8.77537
-8.77152 -11.8867 -8.77148
-5.47296 -11.9182 -8.77128
-1.86518 -11.9319 -8.77152
1.86522 -11.9319 -8.77153
5.47298 -11.9181 -8.77128
8.77151 -11.8867 -8.77148
11.2905 -11.8528 -8.77538
11.9863 -11.9863 -8.77816
-11.8528 -11.2904 -8.77537
-11.2222 -11.2222 -8.7636
-8.7558 -11.196 -8.75579
-5.4689 -11.1891 -8.75378
-1.86453 -11.1879 -8.75336
1.86451 -11.1879 -8.75336
5.4689 -11.1891 -8.75376
8.75584 -11.1961 -8.75579
11.2222 -11.2222 -8.76361
11.8529 -11.2904 -8.77538
-11.8867 -8.77151 -8.77149
-11.196 -8.7558 -8.75579
-8.74785 -8.74784 -8.74787
-5.46839 -8.74581 -8.74577
-1.86481 -8.74542 -8.74543
1.86479 -8.74542 -8.74542
5.46839 -8.7458 -8.74576
8.74784 -8.74787 -8.74789
11.196 -8.75579 -8.7558
11.8867 -8.77151 -8.7715
-11.9182 -5.47296 -8.77127
-11.1891 -5.4689 -8.75374
-8.74582 -5.4684 -8.74578
-5.46945 -5.46943 -8.74378
-1.86555 -5.47008 -8.74341
1.86552 -5.47009 -8.74339
5.46945 -5.46941 -8.74384
8.74574 -5.46844 -8.74576
11.1891 -5.4689 -8.75376
11.9181 -5.47296 -8.77127
-11.9319 -1.86519 -8.77155
-11.1879 -1.86451 -8.75338
-8.74543 -1.86485 -8.74543
-5.4701 -1.86555 -8.74345
-1.86595 -1.86593 -8.743
1.86592 -1.86595 -8.74304
5.47004 -1.86554 -8.74339
8.74537 -1.86487 -8.74543
11.1879 -1.86452 -8.75338
11.9319 -1.86518 -8.77155
-11.9319 1.86519 -8.77153
-11.1879 1.86447 -8.75336
-8.74542 1.8648 -8.74544
-5.47007 1.86551 -8.74337
-1.86593 1.86594 -8.74295
1.86594 1.86592 -8.74293
5.4701 1.86556 -8.74342
8.74541 1.86476 -8.74542
11.1879 1.8645 -8.75335
11.9319 1.86517 -8.77153
-11.9181 5.47293 -8.7713
-11.189 5.4689 -8.75377
-8.74578 5.46837 -8.74579
-5.46944 5.46942 -8.7438
-1.86556 5.47008 -8.74343
1.86553 5.47006 -8.74343
5.46943 5.46945 -8.74376
8.74569 5.46836 -8.74581
11.189 5.46888 -8.75378
11.918 5.47293 -8.77131
-11.8867 8.7715 -8.77152
-11.196 8.75584 -8.75579
-8.74782 8.74782 -8.74787
-5.46835 8.74575 -8.74581
-1.8648 8.74539 -8.74542
1.8648 8.74539 -8.7454
5.46839 8.74578 -8.74583
8.74782 8.74782 -8.74783
11.196 8.75583 -8.75581
11.8867 8.7715 -8.77151
-11.8528 11.2904 -8.77539
-11.2221 11.2221 -8.76363
-8.75577 11.196 -8.75579
-5.46886 11.189 -8.75377
-1.86451 11.1879 -8.75338
1.86447 11.1879 -8.75338
5.4689 11.189 -8.75376
8.75584 11.196 -8.75582
11.2221 11.2222 -8.76362
11.8528 11.2904 -8.77539
-11.9863 11.9863 -8.77818
-11.2904 11.8528 -8.77539
-8.77149 11.8867 -8.77151
-5.47293 11.9181 -8.77129
-1.86518 11.9319 -8.77154
1.86521 11.9319 -8.77154
5.47296 11.9181 -8.77129
8.7715 11.8867 -8.77152
11.2904 11.8528 -8.77539
11.9863 11.9863 -8.77818
-12.0172 -12.0172 -5.47015
-11.2856 -11.8863 -5.47165
-8.77124 -11.9181 -5.47295
-5.47477 -11.9482 -5.47481
-1.86611 -11.9615 -5.47573
1.86612 -11.9615 -5.47573
5.47477 -11.9482 -5.47482
8.77125 -11.9181 -5.47294
11.2856 -11.8864 -5.47166
12.0172 -12.0172 -5.47015
-11.8863 -11.2856 -5.47166
-11.2148 -11.2148 -5.46925
-8.75373 -11.189 -5.46895
-5.46999 -11.1821 -5.47004
-1.86523 -11.1808 -5.47062
1.86522 -11.1808 -5.47063
5.46995 -11.1821 -5.47003
8.75371 -11.189 -5.46888
11.2148 -11.2148 -5.46926
11.8863 -11.2856 -5.47164
-11.9181 -8.77123 -5.47294
-11.1891 -8.75373 -5.46889
-8.7458 -8.74578 -5.46842
-5.46943 -8.74375 -5.4694
-1.86555 -8.74341 -5.47007
1.86554 -8.74339 -5.47008
5.46944 -8.74376 -5.46938
8.74578 -8.74576 -5.46844
11.1891 -8.75375 -5.4689
11.9181 -8.77124 -5.47297
-11.9482 -5.47477 -5.47482
-11.182 -5.46999 -5.47001
-8.74375 -5.46941 -5.46943
-5.47047 -5.47046 -5.47049
-1.86622 -5.47116 -5.47112
1.8663 -5.47114 -5.47112
5.47055 -5.47049 -5.47053
8.74381 -5.46939 -5.46937
11.1821 -5.47001 -5.47003
11.9483 -5.47478 -5.4748
-11.9615 -1.86612 -5.47575
-11.1808 -1.86524 -5.47065
-8.74341 -1.86555 -5.47009
-5.47115 -1.86625 -5.47116
-1.86669 -1.8667 -5.47176
1.86667 -1.86668 -5.47179
5.47113 -1.86624 -5.47111
8.74342 -1.86553 -5.47012
11.1808 -1.86523 -5.47064
11.9616 -1.86609 -5.47575
-11.9615 1.86615 -5.47572
-11.1808 1.86521 -5.47062
-8.74341 1.86554 -5.47008
-5.47115 1.86628 -5.4711
-1.86671 1.86668 -5.47172
1.86666 1.86665 -5.4717
5.47112 1.86627 -5.47116
8.74341 1.86554 -5.47007
11.1808 1.86521 -5.47062
11.9615 1.86611 -5.47574
-11.9482 5.47477 -5.47481
-11.1821 5.46996 -5.47006
-8.74376 5.46946 -5.46941
-5.47045 5.47054 -5.4705
-1.86626 5.4711 -5.47119
1.86635 5.47113 -5.47118
5.47056 5.47051 -5.47047
8.74383 5.46947 -5.46943
11.1821 5.47001 -5.47005
11.9483 5.47478 -5.47481
-11.9181 8.77125 -5.47295
-11.1891 8.75371 -5.4689
-8.74581 8.74577 -5.46846
-5.46945 8.74382 -5.46946
-1.86556 8.74343 -5.47007
1.86555 8.74344 -5.47005
5.46944 8.74379 -5.46949
8.74572 8.74578 -5.46841
11.189 8.75367 -5.46892
11.9181 8.77126 -5.47296
-11.8864 11.2856 -5.47166
-11.2148 11.2148 -5.46926
-8.75374 11.189 -5.4689
-5.47 11.1821 -5.47005
-1.86523 11.1808 -5.47062
1.86521 11.1808 -5.47063
5.46996 11.1821 -5.47002
8.75371 11.189 -5.46895
11.2148 11.2148 -5.46926
11.8863 11.2856 -5.47166
-12.0172 12.0172 -5.47015
-11.2856 11.8863 -5.47166
-8.77125 11.9181 -5.47297
-5.47478 11.9483 -5.4748
-1.86611 11.9616 -5.47576
1.86612 11.9616 -5.47575
5.47477 11.9483 -5.47481
8.77125 11.9181 -5.47296
11.2856 11.8864 -5.47166
12.0172 12.0172 -5.47015
-12.0304 -12.0304 -1.86362
-11.2849 -11.9008 -1.86442
-8.77153 -11.9319 -1.86519
-5.47573 -11.9615 -1.86616
-1.8666 -11.9746 -1.86662
1.86663 -11.9746 -1.8666
5.47569 -11.9615 -1.86619
8.77152 -11.9319 -1.8652
11.2849 -11.9008 -1.86445
12.0303 -12.0303 -1.86362
-11.9008 -11.2849 -1.86446
-11.2134 -11.2134 -1.86418
-8.75336 -11.1879 -1.86446
-5.47062 -11.1808 -1.86526
-1.86565 -11.1795 -1.86566
1.86569 -11.1795 -1.86566
5.47066 -11.1808 -1.86528
8.75339 -11.1879 -1.8645
11.2135 -11.2134 -1.86417
11.9008 -11.2849 -1.86444
-11.9319 -8.77153 -1.86519
-11.1879 -8.75337 -1.86451
-8.74539 -8.74541 -1.86486
-5.47006 -8.74341 -1.8655
-1.86593 -8.74299 -1.86597
1.86593 -8.74302 -1.86596
5.47006 -8.74339 -1.8655
8.74534 -8.74541 -1.86488
11.1878 -8.75336 -1.86449
11.9318 -8.77154 -1.86517
-11.9615 -5.47575 -1.86615
-11.1808 -5.47063 -1.86523
-8.74341 -5.47007 -1.86554
-5.47115 -5.47112 -1.8663
-1.8667 -5.47175 -1.86668
1.86667 -5.47177 -1.86668
5.47112 -5.47113 -1.86633
8.74344 -5.47009 -1.86549
11.1809 -5.47062 -1.86524
11.9616 -5.47573 -1.86615
-11.9746 -1.86657 -1.86659
-11.1795 -1.86564 -1.86568
-8.74299 -1.86596 -1.86595
-5.47174 -1.86668 -1.86671
-1.86708 -1.86708 -1.86712
1.86709 -1.86711 -1.86713
5.47172 -1.86668 -1.86665
8.74295 -1.86595 -1.86598
11.1794 -1.86565 -1.86567
11.9746 -1.86661 -1.8666
-11.9746 1.86658 -1.8666
-11.1795 1.86568 -1.86565
-8.74299 1.86593 -1.86594
-5.47174 1.86669 -1.86669
-1.86707 1.86709 -1.86702
1.86708 1.86705 -1.86702
5.47173 1.86668 -1.86669
8.74293 1.86592 -1.86595
11.1795 1.86569 -1.86566
11.9745 1.86661 -1.8666
-11.9615 5.47573 -1.86616
-11.1808 5.47066 -1.86529
-8.7434 5.47002 -1.86553
-5.47116 5.47113 -1.86629
-1.86669 5.47168 -1.86674
1.86666 5.47168 -1.86673
5.4711 5.47115 -1.86627
8.74344 5.47002 -1.86556
11.1808 5.47064 -1.86532
11.9616 5.4757 -1.86619
-11.9319 8.77146 -1.86524
-11.1879 8.75335 -1.86452
-8.74539 8.74535 -1.86488
-5.47005 8.74344 -1.86555
-1.86592 8.74296 -1.86595
1.86593 8.74295 -1.86593
5.47007 8.74344 -1.86562
8.74534 8.74533 -1.86486
11.1879 8.75338 -1.86451
11.9318 8.77147 -1.86525
-11.9008 11.2849 -1.86444
-11.2134 11.2135 -1.86422
-8.75336 11.1879 -1.86454
-5.47062 11.1809 -1.8653
-1.86565 11.1795 -1.8657
1.86569 11.1794 -1.86569
5.47065 11.1809 -1.86529
8.75337 11.1878 -1.86453
11.2134 11.2135 -1.86421
11.9008 11.2849 -1.86444
-12.0303 12.0303 -1.86363
-11.2849 11.9008 -1.86445
-8.77152 11.9318 -1.86528
-5.47572 11.9616 -1.86617
-1.86661 11.9745 -1.86663
1.86662 11.9745 -1.86662
5.47571 11.9616 -1.86618
8.77151 11.9318 -1.86524
11.2849 11.9008 -1.86444
12.0303 12.0303 -1.86365
-12.0303 -12.0303 1.86356
-11.2849 -11.9008 1.86436
-8.77152 -11.9319 1.86518
-5.47572 -11.9615 1.86611
-1.8666 -11.9746 1.8666
1.86661 -11.9745 1.86661
5.47569 -11.9616 1.8661
8.7715 -11.9319 1.86519
11.2849 -11.9008 1.86438
12.0303 -12.0303 1.86356
-11.9008 -11.2849 1.86441
-11.2135 -11.2135 1.86415
-8.75338 -11.1879 1.8645
-5.47062 -11.1809 1.86518
-1.86566 -11.1795 1.86564
1.86569 -11.1795 1.86564
5.47067 -11.1809 1.86521
8.75338 -11.1878 1.86454
11.2135 -11.2135 1.86417
11.9008 -11.2849 1.86437
-11.9319 -8.77153 1.86518
-11.1879 -8.75337 1.86453
-8.7454 -8.74541 1.86474
-5.47008 -8.7434 1.86557
-1.86593 -8.74299 1.86592
1.86596 -8.74292 1.86592
5.47004 -8.74341 1.86559
8.74537 -8.74538 1.86474
11.1879 -8.75338 1.86451
11.9319 -8.77154 1.86515
-11.9615 -5.47573 1.86606
-11.1808 -5.47063 1.86518
-8.74339 -5.47005 1.86554
-5.47114 -5.47113 1.86617
-1.8667 -5.47173 1.86671
1.86669 -5.47169 1.8667
5.47109 -5.47117 1.8662
8.74343 -5.47003 1.86556
11.1808 -5.47063 1.86518
11.9615 -5.47573 1.8661
-11.9746 -1.86658 1.86658
-11.1795 -1.86566 1.86562
-8.74299 -1.86593 1.8659
-5.47173 -1.86671 1.86666
-1.86707 -1.86709 1.86707
1.86709 -1.86699 1.86701
5.47173 -1.86672 1.86669
8.74298 -1.86594 1.86588
11.1795 -1.86567 1.86561
11.9746 -1.86658 1.86658
-11.9746 1.86661 1.86661
-11.1795 1.86568 1.86565
-8.74298 1.86596 1.8659
-5.47171 1.86666 1.86671
-1.86708 1.86709 1.86712
1.86711 1.86714 1.86715
5.47175 1.86663 1.86666
8.74302 1.866 1.86596
11.1795 1.86567 1.86565
11.9746 1.86662 1.86661
-11.9615 5.47574 1.86606
-11.1808 5.47066 1.86517
-8.7434 5.47007 1.86556
-5.47115 5.4711 1.86624
-1.86669 5.47172 1.86665
1.86667 5.47179 1.86665
5.47111 5.47106 1.86631
8.74341 5.47009 1.86551
11.1808 5.47065 1.86517
11.9615 5.47573 1.86609
-11.9319 8.77148 1.86511
-11.1878 8.75335 1.86448
-8.74539 8.74538 1.86474
-5.47008 8.74343 1.86552
-1.86593 8.74294 1.86592
1.86595 8.74307 1.86594
5.47003 8.74334 1.86547
8.74533 8.74544 1.86478
11.1879 8.75335 1.86452
11.9318 8.77148 1.86513
-11.9008 11.2849 1.86435
-11.2135 11.2135 1.86412
-8.75338 11.1879 1.8645
-5.47062 11.1808 1.86516
-1.86567 11.1795 1.86564
1.86567 11.1796 1.86564
5.47064 11.1807 1.8652
8.75335 11.1879 1.86444
11.2134 11.2134 1.86409
11.9008 11.2849 1.86434
-12.0303 12.0303 1.86354
-11.2849 11.9008 1.86437
-8.77153 11.9319 1.86514
-5.47571 11.9615 1.8661
-1.86662 11.9745 1.8666
1.86662 11.9746 1.8666
5.4757 11.9614 1.86609
8.77149 11.932 1.86511
11.2849 11.9008 1.86434
12.0303 12.0303 1.86356
-12.0172 -12.0172 5.47006
-11.2856 -11.8864 5.4716
-8.77125 -11.9181 5.47289
-5.47477 -11.9482 5.47471
-1.86611 -11.9615 5.47571
1.86613 -11.9616 5.47571
5.4748 -11.9482 5.47471
8.77125 -11.9181 5.47292
11.2856 -11.8864 5.47159
12.0172 -12.0172 5.47007
-11.8864 -11.2856 5.4716
-11.2148 -11.2148 5.46916
-8.75373 -11.1891 5.4689
-5.46998 -11.1821 5.46993
-1.86524 -11.1808 5.47059
1.86521 -11.1808 5.47059
5.46996 -11.1821 5.46992
8.75371 -11.1891 5.46891
11.2148 -11.2148 5.46916
11.8863 -11.2856 5.47161
-11.9181 -8.77126 5.47292
-11.1891 -8.75375 5.46889
-8.74578 -8.74579 5.46832
-5.46942 -8.74377 5.4695
-1.86556 -8.74338 5.47002
1.86553 -8.74342 5.47001
5.46945 -8.74376 5.46947
8.74578 -8.7458 5.46829
11.189 -8.75375 5.46891
11.9181 -8.77126 5.47292
-11.9482 -5.47479 5.47471
-11.1821 -5.47 5.46999
-8.74376 -5.46943 5.46948
-5.47045 -5.47045 5.47037
-1.86628 -5.47114 5.47116
1.86631 -5.47115 5.47116
5.47052 -5.47045 5.47043
8.74381 -5.46943 5.4695
11.1821 -5.46999 5.46994
11.9483 -5.47478 5.47472
-11.9615 -1.86612 5.47569
-11.1808 -1.86523 5.47054
-8.74339 -1.86555 5.47
-5.47114 -1.86625 5.47117
-1.86669 -1.86669 5.47169
1.86667 -1.86673 5.47167
5.47113 -1.86624 5.47116
8.74342 -1.86555 5.46998
11.1808 -1.86524 5.47057
11.9615 -1.86613 5.4757
-11.9615 1.86612 5.47569
-11.1808 1.86519 5.47058
-8.74339 1.86553 5.47
-5.47115 1.86628 5.47112
-1.8667 1.86667 5.47176
1.86666 1.86663 5.47177
5.47108 1.86631 5.47109
8.74339 1.86553 5.46998
11.1808 1.8652 5.47063
11.9615 1.8661 5.4757
-11.9482 5.47476 5.47476
-11.1821 5.46996 5.46992
-8.74374 5.46942 5.46948
-5.47044 5.47052 5.47047
-1.86625 5.47114 5.47107
1.86634 5.47108 5.47113
5.47052 5.47056 5.47049
8.74383 5.46941 5.46947
11.1821 5.46999 5.4699
11.9483 5.47482 5.47473
-11.9182 8.77123 5.47291
-11.1891 8.75367 5.46888
-8.74579 8.74574 5.4683
-5.46943 8.74379 5.46945
-1.86555 8.74342 5.46999
1.86552 8.74339 5.47002
5.46946 8.74383 5.46939
8.74577 8.74572 5.46832
11.1891 8.7537 5.46889
11.9181 8.77129 5.47292
-11.8864 11.2856 5.47164
-11.2148 11.2148 5.46914
-8.75373 11.189 5.46889
-5.46999 11.1821 5.46992
-1.86523 11.1808 5.47059
1.86524 11.1808 5.47057
5.47 11.1821 5.46994
8.7537 11.189 5.46889
11.2148 11.2148 5.46919
11.8864 11.2856 5.47164
-12.0172 12.0172 5.47008
-11.2856 11.8863 5.47162
-8.77125 11.9181 5.4729
-5.47478 11.9483 5.47472
-1.86611 11.9616 5.47567
1.86614 11.9615 5.47568
5.47481 11.9483 5.47472
8.7713 11.9181 5.4729
11.2856 11.8864 5.47162
12.0172 12.0172 5.47007
-11.9863 -11.9863 8.77815
-11.2904 -11.8528 8.77532
-8.77148 -11.8867 8.7714
-5.47294 -11.9181 8.77119