# vtk DataFile Version 3.0 
Lennard-Jones particle simulation 
ASCII 
DATASET UNSTRUCTURED_GRID 
POINTS 1000 float 
-0.913614 -0.913614 -0.913615
0.379808 -0.911992 -0.911992
1.58335 -0.912155 -0.912155
2.7478 -0.912238 -0.912239
3.91475 -0.912258 -0.912258
5.08526 -0.912257 -0.912258
6.2522 -0.912239 -0.912239
7.41665 -0.912155 -0.912155
8.62019 -0.911992 -0.911993
9.91362 -0.913614 -0.913615
-0.911992 0.379808 -0.911992
0.379865 0.379865 -0.909048
1.5831 0.379339 -0.908885
2.74753 0.378935 -0.908839
3.91464 0.378751 -0.908806
5.08536 0.378751 -0.908806
6.25247 0.378935 -0.908839
7.4169 0.37934 -0.908885
8.62014 0.379865 -0.909048
9.91199 0.379808 -0.911993
-0.912155 1.58335 -0.912155
0.379339 1.5831 -0.908884
1.58263 1.58263 -0.90862
2.74719 1.58225 -0.908527
3.91452 1.58207 -0.908479
5.08548 1.58207 -0.908479
6.25281 1.58225 -0.908527
7.41738 1.58263 -0.90862
8.62066 1.5831 -0.908885
9.91216 1.58335 -0.912156
-0.912239 2.7478 -0.912239
0.378935 2.74753 -0.908839
1.58225 2.74719 -0.908528
2.74694 2.74694 -0.908414
3.91444 2.7468 -0.908356
5.08556 2.7468 -0.908356
6.25306 2.74694 -0.908415
7.41775 2.74719 -0.908527
8.62107 2.74753 -0.908838
9.91224 2.7478 -0.912239
-0.912258 3.91474 -0.912258
0.378751 3.91464 -0.908806
1.58207 3.91453 -0.908479
2.7468 3.91444 -0.908356
3.9144 3.9144 -0.90829
5.0856 3.9144 -0.908291
6.2532 3.91444 -0.908355
7.41793 3.91452 -0.908479
8.62125 3.91464 -0.908806
9.91226 3.91474 -0.912257
-0.912257 5.08526 -0.912257
0.378751 5.08536 -0.908806
1.58207 5.08548 -0.908479
2.7468 5.08556 -0.908353
3.9144 5.0856 -0.90829
5.0856 5.0856 -0.90829
6.2532 5.08556 -0.908355
7.41794 5.08548 -0.908478
8.62125 5.08536 -0.908807
9.91226 5.08526 -0.912258
-0.91224 6.2522 -0.91224
0.378934 6.25247 -0.90884
1.58225 6.25281 -0.908528
2.74693 6.25307 -0.908415
3.91444 6.2532 -0.908356
5.08556 6.2532 -0.908356
6.25306 6.25307 -0.908414
7.41774 6.25281 -0.908529
8.62106 6.25247 -0.908839
9.91224 6.2522 -0.91224
-0.912155 7.41665 -0.912155
0.379339 7.4169 -0.908884
1.58263 7.41738 -0.90862
2.74719 7.41774 -0.908529
3.91452 7.41793 -0.908479
5.08548 7.41793 -0.908479
6.25281 7.41774 -0.908529
7.41738 7.41738 -0.90862
8.62066 7.4169 -0.908885
9.91216 7.41665 -0.912155
-0.911993 8.62019 -0.911993
0.379864 8.62014 -0.909049
1.5831 8.62066 -0.908885
2.74753 8.62106 -0.90884
3.91464 8.62125 -0.908807
5.08536 8.62125 -0.908806
6.25247 8.62107 -0.908839
7.4169 8.62066 -0.908885
8.62014 8.62014 -0.909049
9.91199 8.62019 -0.911993
-0.913615 9.91361 -0.913615
0.379807 9.91199 -0.911993
1.58335 9.91216 -0.912156
2.7478 9.91224 -0.91224
3.91474 9.91226 -0.912258
5.08526 9.91226 -0.912258
6.2522 9.91224 -0.91224
7.41665 9.91216 -0.912155
8.62019 9.91199 -0.911993
9.91361 9.91361 -0.913615
-0.911993 -0.911993 0.379807
0.379865 -0.909048 0.379864
1.5831 -0.908884 0.379339
2.74753 -0.908839 0.378934
3.91464 -0.908806 0.37875
5.08536 -0.908806 0.37875
6.25247 -0.908839 0.378934
7.4169 -0.908884 0.379339
8.62014 -0.909048 0.379864
9.91199 -0.911993 0.379807
-0.909048 0.379864 0.379864
0.380489 0.38049 0.380489
1.58315 0.380098 0.380098
2.74741 0.379743 0.379742
3.91458 0.379576 0.379576
5.08542 0.379576 0.379576
6.25259 0.379743 0.379742
7.41685 0.380098 0.380098
8.61951 0.380489 0.380489
9.90905 0.379864 0.379864
-0.908885 1.5831 0.379339
0.380098 1.58315 0.380099
1.58274 1.58274 0.379747
2.7471 1.5824 0.379409
3.91448 1.58221 0.379247
5.08552 1.58221 0.379246
6.2529 1.5824 0.379409
7.41726 1.58274 0.379747
8.6199 1.58315 0.380098
9.90888 1.5831 0.379338
-0.908838 2.74753 0.378934
0.379743 2.74741 0.379742
1.5824 2.7471 0.379408
2.74686 2.74686 0.379076
3.9144 2.74673 0.378916
5.0856 2.74673 0.378916
6.25314 2.74686 0.379074
7.4176 2.7471 0.379409
8.62026 2.74741 0.379743
9.90884 2.74753 0.378935
-0.908806 3.91464 0.37875
0.379576 3.91458 0.379576
1.58221 3.91448 0.379247
2.74673 3.9144 0.378915
3.91436 3.91436 0.37876
5.08564 3.91436 0.37876
6.25327 3.9144 0.378917
7.41779 3.91448 0.379246
8.62043 3.91458 0.379576
9.90881 3.91464 0.37875
-0.908808 5.08536 0.378751
0.379575 5.08542 0.379577
1.58221 5.08552 0.379247
2.74673 5.0856 0.378919
3.91436 5.08564 0.378762
5.08564 5.08564 0.378763
6.25327 5.0856 0.378917
7.41779 5.08552 0.379247
8.62043 5.08542 0.379577
9.90881 5.08536 0.378751
-0.908838 6.25247 0.378934
0.379743 6.25259 0.379741
1.5824 6.2529 0.379407
2.74686 6.25314 0.379075
3.9144 6.25327 0.378916
5.0856 6.25327 0.378916
6.25314 6.25314 0.379075
7.4176 6.2529 0.379407
8.62026 6.25259 0.379741
9.90884 6.25247 0.378934
-0.908885 7.4169 0.379339
0.380098 7.41685 0.380098
1.58274 7.41726 0.379747
2.7471 7.4176 0.379407
3.91448 7.41779 0.379247
5.08552 7.41779 0.379247
6.2529 7.4176 0.379407
7.41726 7.41726 0.379747
8.6199 7.41685 0.380098
9.90888 7.4169 0.379339
-0.909049 8.62014 0.379864
0.380489 8.61951 0.380489
1.58315 8.6199 0.380098
2.74741 8.62026 0.379741
3.91458 8.62043 0.379575
5.08542 8.62043 0.379576
6.25259 8.62026 0.379741
7.41685 8.6199 0.380097
8.61951 8.61951 0.380489
9.90905 8.62014 0.379864
-0.911993 9.91199 0.379807
0.379864 9.90905 0.379864
1.5831 9.90888 0.379338
2.74753 9.90884 0.378934
3.91464 9.90881 0.37875
5.08536 9.90881 0.37875
6.25247 9.90884 0.378934
7.4169 9.90888 0.379339
8.62014 9.90905 0.379864
9.91199 9.91199 0.379806
-0.912156 -0.912156 1.58335
0.379339 -0.908885 1.5831
1.58263 -0.908619 1.58262
2.74719 -0.908529 1.58225
3.91452 -0.90848 1.58206
5.08548 -0.90848 1.58207
6.25281 -0.908528 1.58225
7.41738 -0.90862 1.58262
8.62066 -0.908885 1.5831
9.91216 -0.912156 1.58335
-0.908885 0.379339 1.5831
0.380097 0.380098 1.58315
1.58274 0.379748 1.58274
2.7471 0.379407 1.5824
3.91448 0.379246 1.58222
5.08552 0.379246 1.58222
6.2529 0.379408 1.5824
7.41726 0.379747 1.58274
8.6199 0.380098 1.58315
9.90889 0.379339 1.5831
-0.90862 1.58263 1.58263
0.379747 1.58274 1.58274
1.58235 1.58235 1.58235
2.7468 1.58201 1.58201
3.91438 1.58183 1.58183
5.08562 1.58183 1.58183
6.2532 1.58201 1.58201
7.41765 1.58235 1.58235
8.62025 1.58274 1.58274
9.90862 1.58263 1.58262
-0.908529 2.74719 1.58225
0.379407 2.7471 1.5824
1.58201 2.7468 1.58201
2.74656 2.74656 1.58168
3.9143 2.74644 1.5815
5.0857 2.74644 1.5815
6.25343 2.74657 1.58167
7.41799 2.7468 1.58201
8.62059 2.7471 1.5824
9.90853 2.74719 1.58225
-0.90848 3.91452 1.58206
0.379246 3.91448 1.58221
1.58183 3.91438 1.58183
2.74643 3.9143 1.5815
3.91426 3.91426 1.58132
5.08574 3.91426 1.58132
6.25356 3.9143 1.5815
7.41817 3.91438 1.58183
8.62075 3.91448 1.58221
9.90848 3.91452 1.58207
-0.908481 5.08548 1.58207
0.379245 5.08552 1.58222
1.58183 5.08562 1.58183
2.74644 5.0857 1.5815
3.91426 5.08574 1.58132
5.08574 5.08574 1.58132
6.25356 5.0857 1.5815
7.41817 5.08562 1.58183
8.62075 5.08552 1.58222
9.90848 5.08548 1.58207
-0.908525 6.25281 1.58225
0.379409 6.2529 1.58239
1.58201 6.2532 1.58201
2.74656 6.25343 1.58168
3.9143 6.25356 1.5815
5.0857 6.25356 1.5815
6.25343 6.25344 1.58168
7.41799 6.25319 1.58201
8.62059 6.2529 1.58239
9.90852 6.25281 1.58225
-0.908617 7.41737 1.58262
0.379749 7.41726 1.58274
1.58235 7.41765 1.58235
2.7468 7.41799 1.58201
3.91438 7.41817 1.58183
5.08562 7.41817 1.58183
6.2532 7.41799 1.58201
7.41765 7.41765 1.58235
8.62025 7.41726 1.58274
9.90862 7.41737 1.58262
-0.908883 8.62066 1.5831
0.380099 8.6199 1.58315
1.58274 8.62025 1.58274
2.7471 8.62059 1.58239
3.91448 8.62075 1.58221
5.08552 8.62075 1.58221
6.2529 8.62059 1.5824
7.41726 8.62025 1.58274
8.6199 8.6199 1.58315
9.90888 8.62066 1.5831
-0.912153 9.91215 1.58335
0.37934 9.90888 1.5831
1.58263 9.90862 1.58262
2.74719 9.90852 1.58225
3.91452 9.90848 1.58206
5.08548 9.90848 1.58206
6.25281 9.90852 1.58225
7.41737 9.90862 1.58262
8.62066 9.90888 1.5831
9.91216 9.91215 1.58335
-0.912237 -0.912237 2.7478
0.378937 -0.908836 2.74753
1.58226 -0.908526 2.74719
2.74694 -0.908413 2.74693
3.91444 -0.908354 2.7468
5.08556 -0.908355 2.7468
6.25306 -0.908413 2.74693
7.41774 -0.908526 2.74719
8.62106 -0.908837 2.74753
9.91224 -0.912237 2.7478
-0.908836 0.378937 2.74753
0.379744 0.379744 2.74741
1.5824 0.379409 2.7471
2.74686 0.379077 2.74686
3.9144 0.378917 2.74673
5.0856 0.378917 2.74673
6.25314 0.379077 2.74686
7.4176 0.379409 2.7471
8.62026 0.379744 2.74741
9.90883 0.378936 2.74753
-0.908526 1.58226 2.74719
0.379409 1.5824 2.7471
1.58201 1.58201 2.7468
2.74656 1.58168 2.74657
3.9143 1.5815 2.74644
5.0857 1.5815 2.74644
6.25344 1.58168 2.74657
7.41799 1.58201 2.7468
8.62059 1.5824 2.7471
9.90853 1.58226 2.74719
-0.908413 2.74694 2.74693
0.379076 2.74686 2.74686
1.58168 2.74657 2.74657
2.74633 2.74633 2.74633
3.91423 2.7462 2.7462
5.08578 2.7462 2.7462
6.25367 2.74633 2.74633
7.41833 2.74657 2.74657
8.62093 2.74686 2.74686
9.90841 2.74694 2.74693
-0.908354 3.91444 2.7468
0.378917 3.9144 2.74673
1.5815 3.9143 2.74643
2.7462 3.91423 2.7462
3.91418 3.91418 2.74607
5.08582 3.91418 2.74607
6.2538 3.91422 2.7462
7.4185 3.9143 2.74643
8.62108 3.9144 2.74673
9.90836 3.91444 2.7468
-0.908355 5.08556 2.7468
0.378917 5.0856 2.74673
1.5815 5.0857 2.74644
2.7462 5.08578 2.7462
3.91418 5.08582 2.74607
5.08582 5.08582 2.74607
6.2538 5.08578 2.7462
7.4185 5.0857 2.74644
8.62108 5.0856 2.74673
9.90836 5.08556 2.7468
-0.908413 6.25306 2.74693
0.379076 6.25314 2.74686
1.58168 6.25343 2.74657
2.74633 6.25367 2.74633
3.91423 6.2538 2.7462
5.08578 6.2538 2.7462
6.25367 6.25367 2.74633
7.41833 6.25343 2.74656
8.62093 6.25314 2.74686
9.90841 6.25306 2.74693
-0.908526 7.41774 2.74719
0.379409 7.4176 2.7471
1.58201 7.41799 2.7468
2.74656 7.41832 2.74656
3.9143 7.4185 2.74643
5.0857 7.4185 2.74644
6.25343 7.41832 2.74656
7.41799 7.41799 2.7468
8.62059 7.4176 2.7471
9.90853 7.41774 2.74719
-0.908836 8.62106 2.74753
0.379744 8.62026 2.74741
1.5824 8.62059 2.7471
2.74686 8.62093 2.74686
3.9144 8.62108 2.74673
5.0856 8.62108 2.74673
6.25314 8.62092 2.74686
7.4176 8.62059 2.7471
8.62026 8.62026 2.74741
9.90884 8.62106 2.74753
-0.912237 9.91224 2.7478
0.378936 9.90884 2.74753
1.58226 9.90852 2.74719
2.74694 9.90841 2.74693
3.91444 9.90836 2.7468
5.08556 9.90836 2.7468
6.25306 9.90841 2.74693
7.41774 9.90852 2.74719
[...]
POINT_DATA 1000
SCALARS mass float 
LOOKUP_TABLE default 
1
1
1
1
1
1
1
1
1
1
1
1
1
1
1
1
1
1
1
1
1
1
1
1
1
1
1
1
1
1
1
1
1
1
1
1
1
1
1
1
1
1
1
1
1
1
1
1
1
1
1
1
1
1
1
1
1
1
1
1
1
1
1
1
1
1
1
1
1
1
1
1
1
1
1
1
1
1
1
1
1
1
1
1
1
1
1
1
1
1
1
1
1
1
1
1
1
1
1
1
1
1
1
1
1
1
1
1
1
1
1
1
1
1
1
1
1
1
1
1
1
1
1
1
1
1
1
1
1
1
1
1
1
1
1
1
1
1
1
1
1
1
1
1
1
1
1
1
1
1
1
1
1
1
1
1
1
1
1
1
1
1
1
1
1
1
1
1
1
1
1
1
1
1
1
1
1
1
1
1
1
1
1
1
1
1
1
1
1
1
1
1
1
1
1
1
1
1
1
1
1
1
1
1
1
1
1
1
1
1
1
1
1
1
1
1
1
1
1
1
1
1
1
1
1
1
1
1
1
1
1
1
1
1
1
1
1
1
1
1
1
1
1
1
1
1
1
1
1
1
1
1
1
1
1
1
1
1
1
1
1
1
1
1
1
1
1
1
1
1
1
1
1
1
1
1
1
1
1
1
1
1
1
1
1
1
1
1
1
1
1
1
1
1
1
1
1
1
1
1
1
1
1
1
1
1
1
1
1
1
1
1
1
1
1
1
1
1
1
1
1
1
1
1
1
1
1
1
1
1
1
1
1
1
1
1
1
1
1
1
1
1
1
1
1
1
1
1
1
1
1
1
1
1
1
1
1
1
1
1
1
1
1
1
1
1
1
1
1
1
1
1
1
1
1
1
1
1
1
1
1
1
1
1
1
1
1
1
1
1
1
1
1
1
1
1
1
1
1
1
1
1
1
1
1
1
1
1
1
1
1
1
1
1
1
1
1
1
1
1
1
1
1
1
1
1
1
1
1
1
1
1
1
1
1
1
1
1
1
1
1
1
1
1
1
1
1
1
1
1
1
1
1
1
1
1
1
1
1
1
1
1
1
1
1
1
1
1
1
1
1
1
1
1
1
1
1
1
1
1
1
1
1
1
1
1
1
1
1
1
1
1
1
1
1
1
1
1
1
1
1
1
1
1
1
1
1
1
1
1
1
1
1
1
1
1
1
1
1
1
1
1
1
1
1
1
1
1
1
1
1
1
1
1
1
1
1
1
1
1
1
1
1
1
1
1
1
1
1
1
1
1
1
1
1
1
1
1
1
1
1
1
1
1
1
1
1
1
1
1
1
1
1
1
1
1
1
1
1
1
1
1
1
1
1
1
1
1
1
1
1
1
1
1
1
1
1
1
1
1
1
1
1
1
1
1
1
1
1
1
1
1
1
1
1
1
1
1
1
1
1
1
1
1
1
1
1
1
1
1
1
1
1
1
1
1
1
1
1
1
1
1
1
1
1
1
1
1
1
1
1
1
1
1
1
1
1
1
1
1
1
1
1
1
1
1
1
1
1
1
1
1
1
1
1
1
1
1
1
1
1
1
1
1
1
1
1
1
1
1
1
1
1
1
1
1
1
1
1
1
1
1
1
1
1
1
1
1
1
1
1
1
1
1
1
1
1
1
1
1
1
1
1
1
1
1
1
1
1
1
1
1
1
1
1
1
1
1
1
1
1
1
1
1
1
1
1
1
1
1
1
1
1
1
1
1
1
1
1
1
1
1
1
1
1
1
1
1
1
1
1
1
1
1
1
1
1
1
1
1
1
1
1
1
1
1
1
1
1
1
1
1
1
1
1
1
1
1
1
1
1
1
1
1
1
1
1
1
1
1
1
1
1
1
1
1
1
1
1
1
1
1
1
1
1
1
1
1
1
1
1
1
1
1
1
1
1
1
1
1
1
1
1
1
1
1
1
1
1
1
1
1
1
1
1
1
1
1
1
1
1
1
1
1
1
1
1
1
1
1
1
1
1
1
1
1
1
1
1
1
1
1
1
1
1
1
1
1
1
1
1
1
1
1
1
1
1
1
1
1
1
1
1
1
1
1
1
1
1
1
1
1
1
1
1
1
1
1
1
1
1
1
1
1
1
1
1
1
1
1
1
1
1
1
1
1
1
1
1
1
1
1
1
1
1
1
1
1
1
1
1
1
1
1
1
1
1
1
1
1
1
1
1
1
1
1
1
1
1
1
1
1
1
1
1
1
1
1
1
1
1
1
1
1
1
1
1
1
1
1
1
1
1
1
1
1
1
1
1
1
VECTORS velocity float 
-11.8518 -11.8518 -11.8518
-10.2232 -11.8096 -11.8097
-8.45109 -11.809 -11.809
-5.75183 -11.8099 -11.8099
-1.94014 -11.8103 -11.8103
1.94016 -11.8103 -11.8103
5.75186 -11.8099 -11.8099
8.45111 -11.809 -11.809
10.2232 -11.8097 -11.8097
11.8518 -11.8518 -11.8518
-11.8097 -10.2232 -11.8097
-10.2119 -10.2119 -11.7468
-8.4502 -10.218 -11.7403
-5.75355 -10.225 -11.7385
-1.94004 -10.2288 -11.7378
1.94002 -10.2288 -11.7378
5.75351 -10.225 -11.7385
8.45023 -10.218 -11.7403
10.2119 -10.2119 -11.7468
11.8096 -10.2232 -11.8097
-11.809 -8.45109 -11.809
-10.2181 -8.45021 -11.7403
-8.45719 -8.45722 -11.7319
-5.75793 -8.46388 -11.7291
-1.94096 -8.46741 -11.7281
1.941 -8.46739 -11.7281
5.75791 -8.46387 -11.7291
8.45723 -8.45722 -11.7319
10.2181 -8.45018 -11.7403
11.809 -8.45111 -11.809
-11.8099 -5.75186 -11.8099
-10.225 -5.75356 -11.7385
-8.46387 -5.75791 -11.7291
-5.7618 -5.76181 -11.7258
-1.94198 -5.76388 -11.7246
1.94196 -5.76389 -11.7246
5.76184 -5.7618 -11.7258
8.46385 -5.75792 -11.7291
10.225 -5.75354 -11.7385
11.8099 -5.75181 -11.8099
-11.8103 -1.94012 -11.8103
-10.2288 -1.94003 -11.7378
-8.46742 -1.94091 -11.7281
-5.76391 -1.94197 -11.7246
-1.94264 -1.94262 -11.7232
1.9426 -1.94263 -11.7232
5.76394 -1.94197 -11.7245
8.46739 -1.94095 -11.7281
10.2288 -1.94002 -11.7378
11.8103 -1.94013 -11.8103
-11.8103 1.94018 -11.8103
-10.2288 1.94003 -11.7378
-8.4674 1.94094 -11.7281
-5.7639 1.94195 -11.7245
-1.94264 1.94257 -11.7232
1.94264 1.94261 -11.7232
5.76391 1.94194 -11.7245
8.46744 1.941 -11.7281
10.2289 1.94005 -11.7378
11.8103 1.94013 -11.8103
-11.8099 5.75179 -11.8099
-10.2251 5.75357 -11.7385
-8.46387 5.75793 -11.7291
-5.76184 5.76186 -11.7258
-1.94198 5.76392 -11.7246
1.94195 5.76389 -11.7246
5.7618 5.76185 -11.7258
8.46387 5.7579 -11.7291
10.225 5.75352 -11.7385
11.8099 5.75185 -11.8099
-11.809 8.45115 -11.809
-10.2181 8.45021 -11.7403
-8.45719 8.45729 -11.7319
-5.75794 8.46382 -11.7291
-1.94094 8.46741 -11.7281
1.941 8.46741 -11.7281
5.75791 8.46386 -11.7291
8.45719 8.4572 -11.7319
10.2181 8.4502 -11.7403
11.809 8.45109 -11.809
-11.8097 10.2232 -11.8097
-10.2119 10.2119 -11.7468
-8.45021 10.218 -11.7403
-5.75356 10.225 -11.7385
-1.94001 10.2288 -11.7378
1.94003 10.2288 -11.7378
5.75352 10.225 -11.7385
8.45022 10.2181 -11.7403
10.2119 10.212 -11.7468
11.8096 10.2232 -11.8097
-11.8518 11.8518 -11.8518
-10.2232 11.8096 -11.8097
-8.45111 11.809 -11.809
-5.75182 11.8099 -11.8099
-1.94016 11.8103 -11.8103
1.9402 11.8103 -11.8103
5.75183 11.8099 -11.8099
8.45109 11.809 -11.809
10.2232 11.8096 -11.8097
11.8519 11.8519 -11.8519
-11.8097 -11.8097 -10.2232
-10.2119 -11.7468 -10.2119
-8.45021 -11.7403 -10.2181
-5.75356 -11.7385 -10.2251
-1.94002 -11.7378 -10.2288
1.94 -11.7378 -10.2288
5.75353 -11.7385 -10.2251
8.4502 -11.7403 -10.2181
10.212 -11.7468 -10.212
11.8096 -11.8097 -10.2232
-11.7468 -10.212 -10.212
-10.1905 -10.1905 -10.1905
-8.44371 -10.194 -10.194
-5.75205 -10.1998 -10.1998
-1.93899 -10.2032 -10.2032
1.93893 -10.2032 -10.2032
5.75215 -10.1998 -10.1998
8.44367 -10.194 -10.194
10.1905 -10.1905 -10.1905
11.7469 -10.2119 -10.212
-11.7403 -8.45019 -10.2181
-10.194 -8.4437 -10.194
-8.44938 -8.44938 -10.1967
-5.75575 -8.4555 -10.2021
-1.93952 -8.45885 -10.2054
1.93952 -8.45884 -10.2054
5.75572 -8.45549 -10.2021
8.4494 -8.44938 -10.1967
10.194 -8.44371 -10.194
11.7403 -8.4502 -10.2181
-11.7385 -5.75355 -10.225
-10.1998 -5.75205 -10.1998
-8.45545 -5.75574 -10.2021
-5.75945 -5.75937 -10.2074
-1.94045 -5.76138 -10.2106
1.94048 -5.76137 -10.2106
5.75938 -5.75939 -10.2074
8.4555 -5.75573 -10.2021
10.1999 -5.75205 -10.1998
11.7385 -5.75356 -10.225
-11.7378 -1.94004 -10.2288
-10.2032 -1.93897 -10.2032
-8.45886 -1.93952 -10.2054
-5.76136 -1.94048 -10.2106
-1.94108 -1.94104 -10.2137
1.94111 -1.94105 -10.2137
5.76136 -1.94049 -10.2106
8.45889 -1.93951 -10.2054
10.2032 -1.93897 -10.2032
11.7378 -1.94004 -10.2288
-11.7378 1.94004 -10.2288
-10.2032 1.93895 -10.2032
-8.45886 1.93953 -10.2054
-5.76138 1.94044 -10.2105
-1.94108 1.94107 -10.2136
1.9411 1.94108 -10.2136
5.76135 1.94045 -10.2106
8.45889 1.93952 -10.2053
10.2032 1.93893 -10.2032
11.7378 1.94005 -10.2288
-11.7385 5.75354 -10.2251
-10.1998 5.75211 -10.1999
-8.45545 5.75569 -10.2021
-5.75945 5.75941 -10.2074
-1.94046 5.76136 -10.2106
1.94049 5.76137 -10.2106
5.75938 5.75941 -10.2074
8.4555 5.7557 -10.2021
10.1999 5.75211 -10.1999
11.7385 5.75354 -10.2251
-11.7403 8.45022 -10.2181
-10.194 8.44369 -10.194
-8.44938 8.4494 -10.1967
-5.75575 8.45551 -10.2021
-1.93952 8.45891 -10.2053
1.93952 8.45891 -10.2053
5.7557 8.45551 -10.2022
8.44939 8.44941 -10.1967
10.194 8.4437 -10.194
11.7403 8.45022 -10.2181
-11.7468 10.2119 -10.212
-10.1905 10.1905 -10.1905
-8.44371 10.194 -10.194
-5.75205 10.1999 -10.1999
-1.93899 10.2032 -10.2032
1.93893 10.2032 -10.2032
5.75215 10.1999 -10.1998
8.44367 10.194 -10.194
10.1905 10.1905 -10.1905
11.7469 10.2119 -10.212
-11.8097 11.8097 -10.2232
-10.212 11.7469 -10.212
-8.45021 11.7403 -10.2181
-5.75356 11.7385 -10.225
-1.94002 11.7378 -10.2288
1.93999 11.7378 -10.2288
5.75353 11.7385 -10.225
8.4502 11.7403 -10.2181
10.212 11.7468 -10.212
11.8096 11.8097 -10.2232
-11.809 -11.809 -8.45112
-10.2181 -11.7404 -8.45018
-8.4572 -11.7319 -8.45722
-5.75794 -11.7291 -8.46387
-1.94096 -11.7281 -8.46743
1.94099 -11.7281 -8.46741
5.75791 -11.7291 -8.46387
8.45725 -11.732 -8.45723
10.2181 -11.7403 -8.45022
11.809 -11.809 -8.45112
-11.7404 -10.2181 -8.4502
-10.194 -10.194 -8.4437
-8.44938 -10.1967 -8.44935
-5.75575 -10.2022 -8.45549
-1.93952 -10.2054 -8.45884
1.93952 -10.2054 -8.45884
5.75572 -10.2021 -8.4555
8.44941 -10.1967 -8.44935
10.194 -10.194 -8.44371
11.7404 -10.2181 -8.4502
-11.7319 -8.45721 -8.45722
-10.1967 -8.44938 -8.44934
-8.45466 -8.45466 -8.45466
-5.75924 -8.46061 -8.46057
-1.94003 -8.46393 -8.46392
1.94004 -8.46393 -8.46393
5.75919 -8.46058 -8.46057
8.45465 -8.45467 -8.45467
10.1967 -8.44938 -8.44936
11.7319 -8.4572 -8.45723
-11.7291 -5.7579 -8.4639
-10.2021 -5.75576 -8.45549
-8.46062 -5.7592 -8.4606
-5.76276 -5.76275 -8.46643
-1.94099 -5.76467 -8.46979
1.94096 -5.76468 -8.46977
5.76278 -5.76276 -8.46649
8.46057 -5.75924 -8.46056
10.2021 -5.75575 -8.45549
11.7291 -5.75793 -8.46386
-11.7281 -1.94098 -8.46743
-10.2054 -1.93951 -8.45887
-8.46395 -1.94009 -8.46392
-5.76467 -1.94095 -8.4698
-1.94164 -1.94161 -8.47302
1.94163 -1.94162 -8.47304
5.76463 -1.94096 -8.46978
8.46389 -1.9401 -8.46396
10.2054 -1.93953 -8.45885
11.7281 -1.94096 -8.46743
-11.7281 1.94098 -8.4674
-10.2054 1.93953 -8.45884
-8.46394 1.94003 -8.46393
-5.76466 1.94093 -8.46974
-1.9416 1.94165 -8.473
1.94164 1.94162 -8.473
5.76464 1.94098 -8.46979
8.46393 1.94002 -8.46392
10.2054 1.93954 -8.45884
11.7281 1.94099 -8.46741
-11.7291 5.75789 -8.46389
-10.2021 5.7557 -8.45552
-8.46059 5.75918 -8.46058
-5.76277 5.76274 -8.46648
-1.94099 5.76463 -8.46981
1.94096 5.76466 -8.46981
5.76276 5.76276 -8.46645
8.46059 5.7592 -8.46059
10.202 5.75569 -8.45551
11.729 5.75785 -8.46388
-11.7319 8.45721 -8.45724
-10.1966 8.4494 -8.44937
-8.45464 8.45467 -8.45469
-5.75921 8.46061 -8.4606
-1.94004 8.46391 -8.46392
1.94006 8.46388 -8.46393
5.75919 8.46061 -8.46063
8.45463 8.45461 -8.45466
10.1967 8.4494 -8.44939
11.7319 8.45721 -8.45722
-11.7403 10.2181 -8.45022
-10.194 10.194 -8.44375
-8.44936 10.1967 -8.44937
-5.75573 10.2021 -8.45554
-1.93952 10.2054 -8.45888
1.93953 10.2054 -8.45888
5.75571 10.2021 -8.45551
8.44938 10.1967 -8.44939
10.194 10.194 -8.44373
11.7403 10.2181 -8.45022
-11.809 11.809 -8.4511
-10.2181 11.7403 -8.45021
-8.45719 11.7319 -8.45724
-5.75791 11.729 -8.46387
-1.94095 11.7281 -8.46742
1.94098 11.7281 -8.46742
5.75792 11.7291 -8.46388
8.45719 11.7319 -8.45724
10.2181 11.7403 -8.45022
11.809 11.809 -8.45111
-11.8098 -11.8098 -5.75186
-10.225 -11.7384 -5.75358
-8.46384 -11.7291 -5.75789
-5.7618 -11.7258 -5.76185
-1.94196 -11.7245 -5.76387
1.94197 -11.7246 -5.7639
5.76181 -11.7258 -5.76184
8.46382 -11.7291 -5.75788
10.225 -11.7384 -5.75358
11.8099 -11.8098 -5.75186
-11.7384 -10.225 -5.75354
-10.1998 -10.1998 -5.75206
-8.45544 -10.2021 -5.75574
-5.75941 -10.2074 -5.75943
-1.94046 -10.2106 -5.76135
1.94047 -10.2106 -5.76135
5.75934 -10.2074 -5.75941
8.45546 -10.2021 -5.75578
10.1998 -10.1998 -5.75207
11.7384 -10.225 -5.75356
-11.7291 -8.46384 -5.75791
-10.2021 -8.45543 -5.75579
-8.46059 -8.46058 -5.75926
-5.76277 -8.46647 -5.76273
-1.94096 -8.4698 -5.76471
1.94095 -8.46978 -5.76469
5.76277 -8.46648 -5.76273
8.4606 -8.46057 -5.75928
10.2021 -8.45544 -5.75577
11.7291 -8.46385 -5.75791
-11.7258 -5.7618 -5.7618
-10.2074 -5.75942 -5.75939
-8.46644 -5.76275 -5.76276
-5.76626 -5.76623 -5.76629
-1.94179 -5.7682 -5.76818
1.94185 -5.76819 -5.76818
5.76627 -5.76625 -5.76632
8.46655 -5.76273 -5.76275
10.2074 -5.75943 -5.75941
11.7258 -5.76182 -5.76182
-11.7245 -1.94195 -5.76391
-10.2106 -1.94046 -5.76137
-8.4698 -1.94095 -5.76472
-5.7682 -1.94182 -5.76821
-1.94246 -1.94247 -5.77014
1.94245 -1.94244 -5.77017
5.7682 -1.94184 -5.76818
8.46972 -1.94093 -5.76467
10.2106 -1.94047 -5.76138
11.7246 -1.94192 -5.76391
-11.7245 1.94198 -5.76391
-10.2106 1.94046 -5.76135
-8.46979 1.94097 -5.76469
-5.76819 1.94183 -5.76817
-1.94248 1.94247 -5.77008
1.94246 1.94243 -5.77007
5.76817 1.94185 -5.7682
8.46972 1.94094 -5.7647
10.2106 1.94049 -5.76136
11.7246 1.94196 -5.76391
-11.7258 5.76179 -5.76186
-10.2074 5.75934 -5.75939
-8.46644 5.76273 -5.76276
-5.76624 5.76627 -5.76629
-1.94185 5.76818 -5.76823
1.94189 5.76819 -5.76823
5.76631 5.76631 -5.76625
8.46652 5.76274 -5.76279
10.2074 5.75934 -5.75942
11.7258 5.7618 -5.76187
-11.7291 8.46385 -5.75792
-10.2021 8.45547 -5.75577
-8.4606 8.46061 -5.75924
-5.76277 8.46655 -5.76279
-1.94098 8.46973 -5.76472
1.94097 8.46976 -5.76464
5.76276 8.46648 -5.76279
8.46058 8.46063 -5.75925
10.2021 8.45547 -5.75581
11.7291 8.46382 -5.75792
-11.7384 10.225 -5.75358
-10.1998 10.1998 -5.75205
-8.45543 10.2021 -5.75577
-5.75942 10.2074 -5.7594
-1.94045 10.2106 -5.76135
1.94046 10.2106 -5.76136
5.75934 10.2074 -5.75941
8.45547 10.2021 -5.75576
10.1998 10.1998 -5.75207
11.7384 10.225 -5.75359
-11.8099 11.8099 -5.75187
-10.225 11.7384 -5.7536
-8.46384 11.7291 -5.75792
-5.76181 11.7258 -5.76187
-1.94195 11.7246 -5.76391
1.94198 11.7246 -5.76391
5.76181 11.7258 -5.76186
8.46382 11.7291 -5.75792
10.225 11.7384 -5.75359
11.8098 11.8099 -5.75185
-11.8103 -11.8103 -1.94014
-10.2288 -11.7378 -1.94002
-8.46741 -11.7281 -1.94094
-5.7639 -11.7245 -1.94197
-1.94262 -11.7232 -1.94265
1.94261 -11.7232 -1.94261
5.76392 -11.7245 -1.942
8.46738 -11.7281 -1.94096
10.2288 -11.7378 -1.94004
11.8103 -11.8103 -1.94014
-11.7378 -10.2288 -1.94006
-10.2032 -10.2032 -1.93897
-8.45885 -10.2053 -1.93962
-5.76136 -10.2106 -1.94051
-1.94107 -10.2137 -1.94107
1.94108 -10.2137 -1.94107
5.76137 -10.2106 -1.94051
8.45889 -10.2053 -1.93951
10.2032 -10.2032 -1.93898
11.7378 -10.2288 -1.94004
-11.7281 -8.46741 -1.94091
-10.2053 -8.45884 -1.93952
-8.46394 -8.46392 -1.94007
-5.76464 -8.46979 -1.94096
-1.94162 -8.47303 -1.94157
1.94164 -8.47304 -1.94159
5.76465 -8.46979 -1.94092
8.46389 -8.46392 -1.94008
10.2053 -8.45884 -1.93954
11.728 -8.46741 -1.94095
-11.7245 -5.7639 -1.94199
-10.2106 -5.76138 -1.94048
-8.4698 -5.76469 -1.94093
-5.76819 -5.76819 -1.94184
-1.94245 -5.77008 -1.94244
1.94243 -5.77011 -1.94245
5.7682 -5.76818 -1.94183
8.46974 -5.76469 -1.94089
10.2106 -5.76137 -1.94049
11.7246 -5.76391 -1.94201
-11.7232 -1.94266 -1.94266
-10.2137 -1.94107 -1.94111
-8.47304 -1.9416 -1.94162
-5.77007 -1.94244 -1.94246
-1.94307 -1.94308 -1.94306
1.94311 -1.94307 -1.94306
5.77003 -1.94245 -1.94243
8.47302 -1.94163 -1.94168
10.2137 -1.94107 -1.9411
11.7231 -1.94264 -1.94265
-11.7232 1.94266 -1.94262
-10.2137 1.94108 -1.94109
-8.47304 1.94161 -1.94164
-5.77007 1.94245 -1.94246
-1.94307 1.94309 -1.94299
1.94312 1.94303 -1.94298
5.77003 1.94243 -1.94251
8.47302 1.94162 -1.94159
10.2137 1.94109 -1.94107
11.7231 1.94263 -1.94265
-11.7245 5.76387 -1.94196
-10.2106 5.76135 -1.94054
-8.4698 5.76464 -1.94096
-5.76819 5.76818 -1.94184
-1.94247 5.77005 -1.94251
1.94246 5.77008 -1.94248
5.76817 5.76821 -1.94184
8.46974 5.76463 -1.94095
10.2106 5.76136 -1.94055
11.7246 5.76388 -1.942
-11.7281 8.46739 -1.94099
-10.2053 8.45889 -1.93955
-8.46394 8.46387 -1.94015
-5.76464 8.46976 -1.94099
-1.9416 8.473 -1.94161
1.94164 8.47299 -1.94164
5.76465 8.46977 -1.94102
8.46389 8.46387 -1.94008
10.2053 8.45888 -1.93953
11.7281 8.46739 -1.941
-11.7378 10.2288 -1.94005
-10.2032 10.2032 -1.93901
-8.45884 10.2053 -1.93954
-5.76137 10.2106 -1.94054
-1.94107 10.2137 -1.9411
1.94108 10.2136 -1.94109
5.76136 10.2106 -1.94052
8.45888 10.2053 -1.93963
10.2032 10.2032 -1.93899
11.7378 10.2288 -1.94003
-11.8103 11.8103 -1.94019
-10.2288 11.7378 -1.94003
-8.46741 11.7281 -1.94103
-5.7639 11.7246 -1.94197
-1.94262 11.7231 -1.94267
1.94262 11.7231 -1.94267
5.76391 11.7246 -1.94198
8.4674 11.728 -1.941
10.2288 11.7378 -1.94003
11.8103 11.8103 -1.9402
-11.8103 -11.8103 1.94005
-10.2288 -11.7378 1.94
-8.46743 -11.7281 1.94092
-5.76388 -11.7246 1.94191
-1.94263 -11.7232 1.94261
1.94261 -11.7232 1.94259
5.76393 -11.7246 1.94189
8.46737 -11.7281 1.94094
10.2288 -11.7378 1.93998
11.8103 -11.8103 1.94006
-11.7378 -10.2288 1.93998
-10.2032 -10.2032 1.93891
-8.45884 -10.2053 1.93965
-5.76137 -10.2106 1.94045
-1.94108 -10.2137 1.94104
1.94108 -10.2136 1.94104
5.76136 -10.2106 1.94044
8.45891 -10.2053 1.93953
10.2032 -10.2032 1.93894
11.7378 -10.2288 1.94
-11.7281 -8.46741 1.94088
-10.2053 -8.45884 1.93952
-8.46393 -8.46391 1.94
-5.76466 -8.46978 1.941
-1.94163 -8.47303 1.94156
1.94167 -8.473 1.94158
5.76461 -8.4698 1.94098
8.46391 -8.4639 1.94
10.2053 -8.45886 1.93953
11.7281 -8.46741 1.94093
-11.7245 -5.7639 1.94187
-10.2106 -5.76137 1.94047
-8.46979 -5.76468 1.94096
-5.76818 -5.7682 1.9418
-1.94248 -5.77007 1.94245
1.94244 -5.77002 1.94246
5.76824 -5.76818 1.94175
8.4697 -5.76465 1.94095
10.2106 -5.76136 1.94043
11.7246 -5.76391 1.94195
-11.7232 -1.94263 1.94265
-10.2137 -1.94109 1.94108
-8.47303 -1.94159 1.94162
-5.77007 -1.94245 1.94242
-1.94306 -1.94307 1.94304
1.94309 -1.94303 1.94301
5.77004 -1.94249 1.94247
8.47304 -1.94159 1.94163
10.2137 -1.94108 1.94107
11.7231 -1.94262 1.94261
-11.7232 1.94263 1.94262
-10.2137 1.9411 1.94108
-8.47302 1.94164 1.94166
-5.77005 1.94243 1.94246
-1.94307 1.9431 1.94308
1.9431 1.94315 1.94309
5.77008 1.94241 1.94246
8.47304 1.94165 1.9416
10.2137 1.94108 1.94106
11.7231 1.94263 1.94263
-11.7246 5.76391 1.94191
-10.2106 5.76136 1.94041
-8.46979 5.76465 1.94098
-5.76818 5.76817 1.94181
-1.94248 5.77004 1.94243
1.94245 5.77009 1.94244
5.76823 5.76817 1.94185
8.46969 5.76468 1.94093
10.2106 5.76135 1.9404
11.7246 5.76392 1.94193
-11.7281 8.46743 1.9409
-10.2053 8.45888 1.93947
-8.46392 8.46391 1.94001
-5.76466 8.46976 1.94094
-1.94163 8.47303 1.94162
1.94167 8.47309 1.94165
5.76461 8.4697 1.94087
8.4639 8.46391 1.94002
10.2053 8.45888 1.93952
11.7281 8.46744 1.94089
-11.7378 10.2288 1.93998
-10.2032 10.2032 1.93887
-8.45884 10.2053 1.93948
-5.76138 10.2106 1.94042
-1.94106 10.2137 1.94104
1.94108 10.2137 1.94104
5.76136 10.2105 1.94042
8.45887 10.2054 1.93953
10.2032 10.2032 1.93888
11.7378 10.2288 1.93997
-11.8103 11.8103 1.94008
-10.2288 11.7378 1.93998
-8.4674 11.7281 1.9409
-5.76391 11.7246 1.94192
-1.94262 11.7231 1.94261
1.94263 11.7232 1.94261
5.76388 11.7245 1.9419
8.4674 11.7281 1.94089
10.2288 11.7378 1.93995
11.8103 11.8103 1.9401
-11.8099 -11.8099 5.7518
-10.225 -11.7385 5.75348
-8.46385 -11.7291 5.75784
-5.76181 -11.7258 5.7618
-1.94194 -11.7245 5.76386
1.94198 -11.7245 5.76389
5.76183 -11.7258 5.76181
8.46381 -11.7291 5.75786
10.225 -11.7384 5.75351
11.8099 -11.8098 5.75179
-11.7384 -10.225 5.75352
-10.1998 -10.1998 5.75204
-8.45543 -10.2021 5.75564
-5.75941 -10.2074 5.75933
-1.94045 -10.2106 5.76133
1.94046 -10.2106 5.76132
5.75933 -10.2074 5.75934
8.45547 -10.2021 5.75579
10.1998 -10.1998 5.75207
11.7384 -10.225 5.75348
-11.7291 -8.46386 5.75792
-10.2021 -8.45544 5.75579
-8.4606 -8.46061 5.75916
-5.76273 -8.46648 5.76278
-1.94095 -8.46978 5.76463
1.94093 -8.46979 5.76464
5.76277 -8.46647 5.76278
8.4606 -8.4606 5.75914
10.2021 -8.45544 5.75577
11.7291 -8.46386 5.75786
-11.7258 -5.76181 5.76183
-10.2074 -5.75945 5.75934
-8.46646 -5.76274 5.76275
-5.76625 -5.76625 5.76612
-1.9418 -5.76817 5.76821
1.94184 -5.7682 5.76824
5.76626 -5.76627 5.76622
8.46654 -5.76275 5.76274
10.2074 -5.75944 5.75933
11.7258 -5.76181 5.76178
-11.7245 -1.94199 5.76385
-10.2106 -1.94045 5.76124
-8.46978 -1.94096 5.7646
-5.76818 -1.94181 5.76817
-1.94248 -1.94247 5.77006
1.94247 -1.94248 5.77
5.7682 -1.94178 5.76816
8.46972 -1.94096 5.76455
10.2106 -1.94045 5.76126
11.7245 -1.94199 5.76388
-11.7245 1.94199 5.76389
-10.2106 1.94049 5.76129
-8.46978 1.94096 5.76454
-5.76819 1.94186 5.76819
-1.94249 1.94246 5.77008
1.94247 1.94242 5.7701
5.76817 1.94187 5.76819
8.46969 1.94096 5.76466
10.2106 1.94049 5.76132
11.7245 1.94196 5.76389
-11.7258 5.7618 5.76179
-10.2074 5.75929 5.75933
-8.46646 5.76273 5.76274
-5.76623 5.76627 5.76622
-1.94181 5.76818 5.76818
1.94186 5.76817 5.76816
5.76628 5.76629 5.76624
8.46653 5.76273 5.76273
10.2074 5.7593 5.75933
11.7258 5.76183 5.76178
-11.7291 8.46383 5.75782
-10.2021 8.45546 5.75574
-8.4606 8.46056 5.75916
-5.76272 8.46649 5.76274
-1.94095 8.46976 5.76461
1.94093 8.46972 5.7646
5.76276 8.46653 5.76273
8.46062 8.46056 5.75917
10.2021 8.45546 5.75576
11.7291 8.46388 5.75785
-11.7384 10.225 5.75349
-10.1998 10.1998 5.75205
-8.45544 10.2021 5.75573
-5.75941 10.2074 5.75933
-1.94045 10.2106 5.76131
1.94047 10.2105 5.76129
5.75937 10.2074 5.75935
8.45548 10.2021 5.75572
10.1998 10.1998 5.75198
11.7384 10.225 5.75349
-11.8099 11.8099 5.75179
-10.225 11.7384 5.75348
-8.46385 11.7291 5.75781
-5.76181 11.7258 5.76177
-1.94195 11.7246 5.76389
1.94198 11.7245 5.76389
5.76183 11.7259 5.76178
8.46383 11.729 5.75782
10.2251 11.7384 5.75348
11.8099 11.8099 5.75177
-11.809 -11.809 8.45106
-10.2181 -11.7403 8.45013
-8.45719 -11.7319 8.45719
-5.75791 -11.7291 8.4638
-1.94093 -11.728 8.46743
1.94098 -11.728 8.46744