# vtk DataFile Version 3.0 
Lennard-Jones particle simulation 
ASCII 
DATASET UNSTRUCTURED_GRID 
POINTS 1000 float 
-10.6949 -10.6949 -10.6949
-8.59388 -10.6191 -10.6191
-5.42387 -10.6359 -10.6359
-1.6302 -10.6528 -10.6528
2.4245 -10.6606 -10.6606
6.57552 -10.6606 -10.6606
10.6302 -10.6528 -10.6528
14.4239 -10.6359 -10.6359
17.5939 -10.6191 -10.6191
19.6949 -10.6949 -10.6949
-10.6191 -8.59389 -10.6191
-8.56247 -8.56247 -10.5225
-5.41888 -8.55729 -10.5376
-1.63073 -8.55754 -10.5554
2.42398 -8.55842 -10.5637
6.57598 -8.55842 -10.5637
10.6307 -8.55754 -10.5554
14.4189 -8.55729 -10.5376
17.5625 -8.56246 -10.5225
19.6191 -8.59389 -10.6191
-10.6359 -5.42388 -10.6359
-8.55729 -5.41888 -10.5376
-5.41915 -5.41915 -10.5508
-1.6329 -5.42061 -10.5675
2.42307 -5.42143 -10.5755
6.57696 -5.42143 -10.5755
10.6329 -5.42061 -10.5675
14.4191 -5.41915 -10.5508
17.5573 -5.41886 -10.5376
19.6359 -5.42386 -10.6359
-10.6528 -1.6302 -10.6528
-8.55755 -1.63074 -10.5554
-5.42062 -1.63288 -10.5675
-1.63504 -1.63503 -10.5835
2.4221 -1.63605 -10.5913
6.5779 -1.63605 -10.5913
10.635 -1.63503 -10.5836
14.4206 -1.6329 -10.5675
17.5576 -1.63072 -10.5554
19.6528 -1.63021 -10.6528
-10.6606 2.42452 -10.6606
-8.55843 2.42399 -10.5637
-5.42144 2.42307 -10.5755
-1.63607 2.4221 -10.5914
2.42163 2.42164 -10.5989
6.57837 2.42164 -10.599
10.636 2.42211 -10.5913
14.4214 2.42307 -10.5756
17.5584 2.42399 -10.5637
19.6606 2.42451 -10.6606
-10.6606 6.57548 -10.6606
-8.55841 6.57602 -10.5637
-5.42144 6.57696 -10.5755
-1.63606 6.57789 -10.5913
2.42166 6.57834 -10.5989
6.57836 6.57835 -10.5989
10.6361 6.57789 -10.5913
14.4215 6.57696 -10.5755
17.5585 6.57602 -10.5637
19.6606 6.5755 -10.6606
-10.6528 10.6302 -10.6529
-8.55756 10.6307 -10.5554
-5.42063 10.633 -10.5675
-1.63504 10.635 -10.5836
2.42209 10.636 -10.5913
6.57787 10.636 -10.5913
10.635 10.635 -10.5836
14.4206 10.6329 -10.5675
17.5576 10.6307 -10.5554
19.6528 10.6302 -10.6528
-10.6359 14.4239 -10.6359
-8.55729 14.4189 -10.5376
-5.41916 14.4192 -10.5508
-1.6329 14.4206 -10.5675
2.42307 14.4214 -10.5755
6.57697 14.4215 -10.5755
10.6329 14.4206 -10.5676
14.4191 14.4191 -10.5508
17.5573 14.4189 -10.5376
19.6359 14.4239 -10.6359
-10.6191 17.5939 -10.6191
-8.56248 17.5624 -10.5225
-5.41888 17.5573 -10.5376
-1.63073 17.5576 -10.5554
2.424 17.5584 -10.5637
6.57599 17.5584 -10.5637
10.6307 17.5576 -10.5554
14.4189 17.5573 -10.5377
17.5625 17.5625 -10.5225
19.6191 17.5939 -10.6191
-10.6949 19.6949 -10.6949
-8.59389 19.6191 -10.6191
-5.42388 19.6359 -10.6359
-1.63021 19.6528 -10.6528
2.4245 19.6606 -10.6606
6.57551 19.6606 -10.6606
10.6302 19.6528 -10.6528
14.4239 19.6359 -10.6359
17.5939 19.6191 -10.6191
19.6949 19.6949 -10.6949
-10.6191 -10.6191 -8.5939
-8.56248 -10.5225 -8.56247
-5.41888 -10.5376 -8.5573
-1.63073 -10.5554 -8.55756
2.42398 -10.5637 -8.55843
6.57597 -10.5637 -8.55842
10.6308 -10.5554 -8.55756
14.4189 -10.5376 -8.5573
17.5625 -10.5225 -8.56249
19.6191 -10.6191 -8.5939
-10.5225 -8.56247 -8.56247
-8.5104 -8.5104 -8.51041
-5.40512 -8.50026 -8.50025
-1.62734 -8.49891 -8.49892
2.42457 -8.49936 -8.49935
6.57545 -8.49935 -8.49935
10.6273 -8.49891 -8.49892
14.4052 -8.50026 -8.50025
17.5104 -8.5104 -8.51041
19.5225 -8.56247 -8.56248
-10.5377 -5.41887 -8.5573
-8.50027 -5.40512 -8.50025
-5.40271 -5.4027 -8.48958
-1.62831 -5.4029 -8.48799
2.42393 -5.40328 -8.48845
6.57605 -5.40328 -8.48845
10.6283 -5.40291 -8.48799
14.4027 -5.4027 -8.48959
17.5003 -5.40513 -8.50027
19.5376 -5.41888 -8.5573
-10.5554 -1.63073 -8.55756
-8.49889 -1.62732 -8.49891
-5.40292 -1.62831 -8.48802
-1.62991 -1.62991 -8.48628
2.42317 -1.6307 -8.48665
6.57684 -1.6307 -8.48665
10.6299 -1.62991 -8.48632
14.4029 -1.62831 -8.48798
17.4989 -1.62733 -8.49891
19.5554 -1.63073 -8.55754
-10.5637 2.42399 -8.55844
-8.49935 2.42457 -8.49937
-5.40328 2.42395 -8.48845
-1.6307 2.42313 -8.48668
2.42274 2.42274 -8.48691
6.57728 2.42276 -8.48692
10.6308 2.42312 -8.48663
14.4033 2.42396 -8.48848
17.4994 2.42458 -8.49936
19.5637 2.42399 -8.55842
-10.5637 6.57601 -8.55841
-8.49939 6.57543 -8.49934
-5.40331 6.57604 -8.48846
-1.63071 6.57686 -8.48661
2.42272 6.57728 -8.48689
6.57727 6.57727 -8.48688
10.6307 6.57686 -8.48665
14.4033 6.57603 -8.48844
17.4994 6.57541 -8.49936
19.5637 6.576 -8.55842
-10.5554 10.6307 -8.55757
-8.4989 10.6273 -8.49894
-5.40292 10.6283 -8.48801
-1.62992 10.6299 -8.48632
2.42316 10.6307 -8.48667
6.57684 10.6307 -8.48668
10.6299 10.6299 -8.48628
14.4029 10.6283 -8.48803
17.4989 10.6273 -8.49892
19.5554 10.6308 -8.55757
-10.5376 14.4189 -8.55731
-8.50027 14.4051 -8.50026
-5.40271 14.4027 -8.48959
-1.62831 14.4029 -8.48803
2.42393 14.4033 -8.48845
6.57603 14.4033 -8.48845
10.6283 14.4029 -8.48805
14.4027 14.4027 -8.48957
17.5002 14.4051 -8.50028
19.5376 14.4189 -8.5573
-10.5225 17.5625 -8.56249
-8.51041 17.5104 -8.51043
-5.40513 17.5002 -8.50026
-1.62735 17.4989 -8.49894
2.42456 17.4994 -8.49937
6.57544 17.4994 -8.49937
10.6273 17.4989 -8.49892
14.4052 17.5003 -8.50028
17.5104 17.5104 -8.51042
19.5225 17.5625 -8.56249
-10.6191 19.6191 -8.5939
-8.56249 19.5225 -8.56248
-5.41889 19.5376 -8.55731
-1.63073 19.5554 -8.55756
2.42398 19.5637 -8.55843
6.57597 19.5637 -8.55844
10.6308 19.5554 -8.55757
14.4189 19.5376 -8.55731
17.5625 19.5225 -8.56249
19.6191 19.6191 -8.5939
-10.6359 -10.6359 -5.42389
-8.55731 -10.5377 -5.41888
-5.41917 -10.5508 -5.41914
-1.63291 -10.5675 -5.42063
2.42305 -10.5755 -5.42143
6.57697 -10.5755 -5.42144
10.6329 -10.5675 -5.42062
14.4192 -10.5508 -5.41914
17.5573 -10.5377 -5.41889
19.6359 -10.6359 -5.42389
-10.5377 -8.55731 -5.41888
-8.50028 -8.50028 -5.40512
-5.40272 -8.48956 -5.4027
-1.62832 -8.48804 -5.40293
2.42393 -8.48846 -5.40328
6.57605 -8.48846 -5.40328
10.6283 -8.48801 -5.40292
14.4027 -8.48959 -5.4027
17.5003 -8.50027 -5.40513
19.5377 -8.5573 -5.41889
-10.5508 -5.41916 -5.41915
-8.48956 -5.40271 -5.4027
-5.39993 -5.39992 -5.39994
-1.62913 -5.40001 -5.39997
2.42337 -5.40033 -5.40033
6.57661 -5.40033 -5.40033
10.6291 -5.39999 -5.39996
14.3999 -5.39995 -5.39996
17.4896 -5.40271 -5.40271
19.5508 -5.41916 -5.41916
-10.5675 -1.63291 -5.42062
-8.48804 -1.62832 -5.4029
-5.40001 -1.62913 -5.39998
-1.63066 -1.63064 -5.40001
2.42259 -1.63143 -5.40033
6.57739 -1.63144 -5.40032
10.6307 -1.63062 -5.40006
14.4 -1.62917 -5.39996
17.488 -1.62832 -5.40292
19.5675 -1.63291 -5.42061
-10.5756 2.42305 -5.42145
-8.48847 2.42395 -5.40329
-5.40033 2.42334 -5.40033
-1.63145 2.42259 -5.40036
2.42218 2.4222 -5.40061
6.57779 2.42218 -5.40064
10.6314 2.4226 -5.40032
14.4003 2.42333 -5.40034
17.4885 2.42394 -5.40329
19.5755 2.42306 -5.42145
-10.5756 6.57695 -5.42144
-8.48848 6.57602 -5.40327
-5.40033 6.57662 -5.40034
-1.63143 6.57738 -5.4003
2.4222 6.57781 -5.40057
6.57781 6.5778 -5.40055
10.6315 6.57742 -5.40034
14.4003 6.57658 -5.40033
17.4885 6.57605 -5.40327
19.5756 6.57694 -5.42144
-10.5675 10.6329 -5.42064
-8.48799 10.6283 -5.40293
-5.39998 10.6291 -5.39998
-1.63064 10.6306 -5.40003
2.42258 10.6314 -5.40035
6.57739 10.6314 -5.40035
10.6306 10.6307 -5.4
14.3999 10.6291 -5.4
17.488 10.6283 -5.40293
19.5675 10.6329 -5.42065
-10.5508 14.4192 -5.41917
-8.48954 14.4027 -5.4027
-5.39991 14.3999 -5.39995
-1.6291 14.4 -5.4
2.42338 14.4003 -5.40033
6.57662 14.4003 -5.40031
10.6291 14.4 -5.40002
14.3999 14.3999 -5.39992
17.4896 14.4027 -5.40272
19.5508 14.4191 -5.41916
-10.5376 17.5573 -5.4189
-8.50025 17.5003 -5.40514
-5.40269 17.4896 -5.4027
-1.62829 17.488 -5.40293
2.42395 17.4884 -5.40329
6.57602 17.4884 -5.40329
10.6283 17.488 -5.40292
14.4027 17.4895 -5.40273
17.5002 17.5003 -5.40514
19.5376 17.5573 -5.4189
-10.6359 19.6359 -5.4239
-8.55727 19.5377 -5.4189
-5.41914 19.5508 -5.41917
-1.63289 19.5675 -5.42063
2.42306 19.5755 -5.42145
6.57696 19.5755 -5.42145
10.6329 19.5675 -5.42063
14.4192 19.5508 -5.41917
17.5573 19.5376 -5.4189
19.6359 19.6359 -5.4239
-10.6528 -10.6528 -1.63024
-8.55751 -10.5553 -1.63074
-5.42059 -10.5675 -1.6329
-1.63502 -10.5835 -1.63505
2.42212 -10.5913 -1.63606
6.57789 -10.5913 -1.63606
10.635 -10.5835 -1.63506
14.4206 -10.5675 -1.6329
17.5575 -10.5554 -1.63075
19.6528 -10.6528 -1.63024
-10.5553 -8.55751 -1.63075
-8.49887 -8.49887 -1.62734
-5.40289 -8.488 -1.62836
-1.6299 -8.48628 -1.62995
2.42317 -8.48665 -1.6307
6.57683 -8.48665 -1.63071
10.6299 -8.48629 -1.62994
14.4029 -8.48798 -1.62831
17.4988 -8.49888 -1.62734
19.5553 -8.55752 -1.63073
-10.5675 -5.42058 -1.6329
-8.48801 -5.40289 -1.62831
-5.39999 -5.39998 -1.62916
-1.63064 -5.39999 -1.63061
2.42259 -5.40033 -1.63143
6.5774 -5.40032 -1.63144
10.6306 -5.4 -1.6306
14.4 -5.39996 -1.62917
17.488 -5.40291 -1.62833
19.5675 -5.42059 -1.63292
-10.5835 -1.63502 -1.63506
-8.48627 -1.62991 -1.62992
-5.39998 -1.63062 -1.63064
-1.63212 -1.63211 -1.63214
2.42186 -1.63294 -1.63292
6.5782 -1.63293 -1.63291
10.6322 -1.63214 -1.63217
14.4 -1.6306 -1.63059
17.4863 -1.62992 -1.62994
19.5836 -1.63502 -1.63505
-10.5913 2.42212 -1.63608
-8.48665 2.42316 -1.63073
-5.40033 2.42259 -1.63145
-1.63294 2.42184 -1.63295
2.42141 2.4214 -1.6337
6.57857 2.42142 -1.63372
10.6329 2.42185 -1.6329
14.4003 2.4226 -1.63147
17.4867 2.42316 -1.63072
19.5913 2.42214 -1.63608
-10.5913 6.57791 -1.63605
-8.48665 6.57681 -1.6307
-5.40034 6.5774 -1.63143
-1.63294 6.57818 -1.6329
2.4214 6.57858 -1.63366
6.57857 6.57856 -1.63365
10.6329 6.57818 -1.63295
14.4003 6.5774 -1.63143
17.4866 6.57681 -1.6307
19.5913 6.57787 -1.63607
-10.5835 10.635 -1.63505
-8.48628 10.6299 -1.62997
-5.39999 10.6307 -1.63062
-1.6321 10.6322 -1.63215
2.42184 10.6329 -1.63297
6.57824 10.6329 -1.63296
10.6322 10.6322 -1.63212
14.4001 10.6307 -1.63064
17.4863 10.6299 -1.62996
19.5836 10.635 -1.63506
-10.5675 14.4206 -1.6329
-8.48802 14.4029 -1.62832
-5.4 14.4 -1.62919
-1.63065 14.4 -1.63066
2.42258 14.4003 -1.63143
6.57741 14.4004 -1.63142
10.6306 14.4 -1.63069
14.3999 14.4 -1.62915
17.488 14.4028 -1.62834
19.5675 14.4206 -1.63291
-10.5554 17.5575 -1.63075
-8.49888 17.4989 -1.62734
-5.4029 17.488 -1.62832
-1.62991 17.4863 -1.62996
2.42316 17.4866 -1.6307
6.57682 17.4867 -1.63071
10.6299 17.4863 -1.62993
14.4029 17.488 -1.62836
[...]
POINT_DATA 1000
SCALARS mass float 
LOOKUP_TABLE default 
1
1
1
1
1
1
1
1
1
1
1
1
1
1
1
1
1
1
1
1
1
1
1
1
1
1
1
1
1
1
1
1
1
1
1
1
1
1
1
1
1
1
1
1
1
1
1
1
1
1
1
1
1
1
1
1
1
1
1
1
1
1
1
1
1
1
1
1
1
1
1
1
1
1
1
1
1
1
1
1
1
1
1
1
1
1
1
1
1
1
1
1
1
1
1
1
1
1
1
1
1
1
1
1
1
1
1
1
1
1
1
1
1
1
1
1
1
1
1
1
1
1
1
1
1
1
1
1
1
1
1
1
1
1
1
1
1
1
1
1
1
1
1
1
1
1
1
1
1
1
1
1
1
1
1
1
1
1
1
1
1
1
1
1
1
1
1
1
1
1
1
1
1
1
1
1
1
1
1
1
1
1
1
1
1
1
1
1
1
1
1
1
1
1
1
1
1
1
1
1
1
1
1
1
1
1
1
1
1
1
1
1
1
1
1
1
1
1
1
1
1
1
1
1
1
1
1
1
1
1
1
1
1
1
1
1
1
1
1
1
1
1
1
1
1
1
1
1
1
1
1
1
1
1
1
1
1
1
1
1
1
1
1
1
1
1
1
1
1
1
1
1
1
1
1
1
1
1
1
1
1
1
1
1
1
1
1
1
1
1
1
1
1
1
1
1
1
1
1
1
1
1
1
1
1
1
1
1
1
1
1
1
1
1
1
1
1
1
1
1
1
1
1
1
1
1
1
1
1
1
1
1
1
1
1
1
1
1
1
1
1
1
1
1
1
1
1
1
1
1
1
1
1
1
1
1
1
1
1
1
1
1
1
1
1
1
1
1
1
1
1
1
1
1
1
1
1
1
1
1
1
1
1
1
1
1
1
1
1
1
1
1
1
1
1
1
1
1
1
1
1
1
1
1
1
1
1
1
1
1
1
1
1
1
1
1
1
1
1
1
1
1
1
1
1
1
1
1
1
1
1
1
1
1
1
1
1
1
1
1
1
1
1
1
1
1
1
1
1
1
1
1
1
1
1
1
1
1
1
1
1
1
1
1
1
1
1
1
1
1
1
1
1
1
1
1
1
1
1
1
1
1
1
1
1
1
1
1
1
1
1
1
1
1
1
1
1
1
1
1
1
1
1
1
1
1
1
1
1
1
1
1
1
1
1
1
1
1
1
1
1
1
1
1
1
1
1
1
1
1
1
1
1
1
1
1
1
1
1
1
1
1
1
1
1
1
1
1
1
1
1
1
1
1
1
1
1
1
1
1
1
1
1
1
1
1
1
1
1
1
1
1
1
1
1
1
1
1
1
1
1
1
1
1
1
1
1
1
1
1
1
1
1
1
1
1
1
1
1
1
1
1
1
1
1
1
1
1
1
1
1
1
1
1
1
1
1
1
1
1
1
1
1
1
1
1
1
1
1
1
1
1
1
1
1
1
1
1
1
1
1
1
1
1
1
1
1
1
1
1
1
1
1
1
1
1
1
1
1
1
1
1
1
1
1
1
1
1
1
1
1
1
1
1
1
1
1
1
1
1
1
1
1
1
1
1
1
1
1
1
1
1
1
1
1
1
1
1
1
1
1
1
1
1
1
1
1
1
1
1
1
1
1
1
1
1
1
1
1
1
1
1
1
1
1
1
1
1
1
1
1
1
1
1
1
1
1
1
1
1
1
1
1
1
1
1
1
1
1
1
1
1
1
1
1
1
1
1
1
1
1
1
1
1
1
1
1
1
1
1
1
1
1
1
1
1
1
1
1
1
1
1
1
1
1
1
1
1
1
1
1
1
1
1
1
1
1
1
1
1
1
1
1
1
1
1
1
1
1
1
1
1
1
1
1
1
1
1
1
1
1
1
1
1
1
1
1
1
1
1
1
1
1
1
1
1
1
1
1
1
1
1
1
1
1
1
1
1
1
1
1
1
1
1
1
1
1
1
1
1
1
1
1
1
1
1
1
1
1
1
1
1
1
1
1
1
1
1
1
1
1
1
1
1
1
1
1
1
1
1
1
1
1
1
1
1
1
1
1
1
1
1
1
1
1
1
1
1
1
1
1
1
1
1
1
1
1
1
1
1
1
1
1
1
1
1
1
1
1
1
1
1
1
1
1
1
1
1
1
1
1
1
1
1
1
1
1
1
1
1
1
1
1
1
1
1
1
1
1
1
1
1
1
1
1
1
1
1
1
1
1
1
1
1
1
1
1
1
1
1
1
1
1
1
1
1
1
1
1
1
1
1
1
1
1
1
1
1
1
1
VECTORS velocity float 
-12.0347 -12.0347 -12.0347
-11.3635 -11.9217 -11.9217
-8.77968 -11.9624 -11.9624
-5.47039 -11.9946 -11.9946
-1.86367 -12.0083 -12.0083
1.86368 -12.0083 -12.0083
5.47044 -11.9946 -11.9946
8.77967 -11.9624 -11.9624
11.3635 -11.9217 -11.9217
12.0347 -12.0347 -12.0347
-11.9217 -11.3635 -11.9217
-11.3325 -11.3325 -11.7859
-8.77712 -11.3112 -11.8271
-5.47192 -11.3052 -11.8622
-1.8645 -11.3041 -11.8772
1.86445 -11.3041 -11.8772
5.47193 -11.3052 -11.8622
8.77711 -11.3112 -11.8271
11.3325 -11.3325 -11.7859
11.9217 -11.3635 -11.9217
-11.9624 -8.77969 -11.9624
-11.3112 -8.77712 -11.8271
-8.77293 -8.77292 -11.8635
-5.47316 -8.77263 -11.8962
-1.86523 -8.77286 -11.9105
1.86526 -8.77286 -11.9105
5.47318 -8.77263 -11.8962
8.77292 -8.77292 -11.8635
11.3112 -8.7771 -11.8271
11.9624 -8.77967 -11.9624
-11.9946 -5.47039 -11.9946
-11.3052 -5.47193 -11.8622
-8.77263 -5.47314 -11.8963
-5.47499 -5.47499 -11.9276
-1.86619 -5.47592 -11.9413
1.86619 -5.47592 -11.9413
5.475 -5.47499 -11.9276
8.77262 -5.47316 -11.8962
11.3053 -5.47191 -11.8622
11.9946 -5.4704 -11.9946
-12.0083 -1.86364 -12.0083
-11.3041 -1.86448 -11.8772
-8.77288 -1.86523 -11.9105
-5.47594 -1.86619 -11.9414
-1.86667 -1.86666 -11.9548
1.86668 -1.86666 -11.9548
5.47588 -1.86619 -11.9413
8.77284 -1.86523 -11.9105
11.3041 -1.86449 -11.8772
12.0082 -1.86365 -12.0083
-12.0082 1.86364 -12.0082
-11.3041 1.86449 -11.8772
-8.77288 1.86526 -11.9105
-5.47592 1.86618 -11.9413
-1.86664 1.86664 -11.9548
1.86667 1.86665 -11.9547
5.47594 1.86618 -11.9413
8.7729 1.86526 -11.9105
11.3041 1.86449 -11.8772
12.0083 1.86366 -12.0082
-11.9946 5.47045 -11.9947
-11.3052 5.47194 -11.8623
-8.77266 5.47323 -11.8963
-5.475 5.47496 -11.9276
-1.8662 5.47591 -11.9413
1.86615 5.4759 -11.9413
5.47496 5.47497 -11.9276
8.77264 5.47315 -11.8963
11.3053 5.47191 -11.8623
11.9946 5.47041 -11.9946
-11.9624 8.77967 -11.9624
-11.3112 8.77709 -11.8271
-8.77294 8.77293 -11.8635
-5.47316 8.77264 -11.8963
-1.86522 8.77288 -11.9105
1.86527 8.77289 -11.9105
5.47318 8.77264 -11.8963
8.77292 8.77293 -11.8635
11.3112 8.77714 -11.8271
11.9624 8.77969 -11.9624
-11.9217 11.3635 -11.9217
-11.3325 11.3325 -11.7859
-8.77712 11.3112 -11.8271
-5.47192 11.3053 -11.8623
-1.86447 11.3041 -11.8772
1.86446 11.3041 -11.8772
5.47194 11.3053 -11.8622
8.7771 11.3112 -11.8271
11.3325 11.3325 -11.7859
11.9217 11.3635 -11.9217
-12.0347 12.0347 -12.0347
-11.3635 11.9217 -11.9217
-8.77969 11.9624 -11.9624
-5.4704 11.9946 -11.9946
-1.86366 12.0083 -12.0083
1.86367 12.0082 -12.0083
5.47042 11.9946 -11.9946
8.77968 11.9624 -11.9624
11.3635 11.9217 -11.9217
12.0347 12.0347 -12.0347
-11.9217 -11.9217 -11.3635
-11.3325 -11.7859 -11.3325
-8.77713 -11.8271 -11.3112
-5.47191 -11.8622 -11.3052
-1.86449 -11.8772 -11.3041
1.86445 -11.8772 -11.3041
5.47195 -11.8622 -11.3052
8.7771 -11.8271 -11.3112
11.3325 -11.7859 -11.3325
11.9217 -11.9217 -11.3635
-11.7859 -11.3325 -11.3325
-11.2759 -11.2759 -11.2759
-8.76597 -11.2459 -11.2459
-5.46968 -11.2372 -11.2372
-1.86427 -11.2353 -11.2353
1.86429 -11.2353 -11.2353
5.46963 -11.2372 -11.2372
8.76602 -11.2459 -11.2459
11.276 -11.2759 -11.2759
11.7859 -11.3325 -11.3325
-11.8271 -8.77711 -11.3112
-11.2459 -8.76597 -11.2459
-8.75776 -8.75774 -11.2169
-5.46923 -8.75563 -11.2087
-1.86461 -8.75523 -11.2071
1.86459 -8.75522 -11.2071
5.46924 -8.75564 -11.2087
8.75776 -8.75774 -11.2169
11.2459 -8.76598 -11.2459
11.8271 -8.77712 -11.3112
-11.8622 -5.47192 -11.3052
-11.2372 -5.46965 -11.2372
-8.75565 -5.46922 -11.2087
-5.47032 -5.47032 -11.2006
-1.8653 -5.47094 -11.199
1.86532 -5.47094 -11.199
5.47034 -5.47032 -11.2007
8.75565 -5.46922 -11.2087
11.2372 -5.46967 -11.2372
11.8623 -5.47192 -11.3052
-11.8772 -1.86449 -11.3041
-11.2353 -1.86427 -11.2353
-8.75522 -1.86459 -11.2071
-5.47094 -1.86535 -11.199
-1.86573 -1.86574 -11.1972
1.86576 -1.86572 -11.1973
5.471 -1.86536 -11.199
8.75524 -1.86457 -11.2071
11.2353 -1.86426 -11.2353
11.8772 -1.86448 -11.3041
-11.8772 1.86448 -11.3041
-11.2353 1.86426 -11.2353
-8.75526 1.86458 -11.2071
-5.47095 1.86535 -11.1989
-1.86576 1.86576 -11.1972
1.86576 1.86575 -11.1972
5.47098 1.86534 -11.199
8.75524 1.86456 -11.207
11.2353 1.86425 -11.2353
11.8772 1.86447 -11.3041
-11.8622 5.47194 -11.3053
-11.2372 5.46968 -11.2372
-8.75565 5.46921 -11.2087
-5.47032 5.47031 -11.2007
-1.86531 5.47098 -11.199
1.86532 5.47099 -11.199
5.47034 5.47032 -11.2006
8.75567 5.46924 -11.2087
11.2372 5.46967 -11.2372
11.8623 5.47195 -11.3053
-11.8271 8.77711 -11.3112
-11.2459 8.766 -11.2459
-8.75775 8.75779 -11.2169
-5.46922 8.75568 -11.2087
-1.86461 8.75524 -11.2071
1.86457 8.75525 -11.2071
5.46922 8.75566 -11.2087
8.75779 8.7578 -11.2168
11.2458 8.766 -11.2459
11.8271 8.7771 -11.3112
-11.7859 11.3325 -11.3326
-11.2759 11.2759 -11.2759
-8.76598 11.2459 -11.2459
-5.46969 11.2372 -11.2372
-1.86427 11.2353 -11.2353
1.86428 11.2353 -11.2353
5.46964 11.2372 -11.2372
8.76602 11.2459 -11.2459
11.276 11.276 -11.2759
11.7859 11.3325 -11.3326
-11.9217 11.9217 -11.3635
-11.3325 11.7859 -11.3325
-8.77713 11.8271 -11.3112
-5.47192 11.8623 -11.3053
-1.8645 11.8772 -11.3041
1.86444 11.8772 -11.3041
5.47195 11.8623 -11.3053
8.7771 11.8271 -11.3112
11.3325 11.7859 -11.3325
11.9217 11.9217 -11.3635
-11.9624 -11.9624 -8.7797
-11.3112 -11.8271 -8.77712
-8.77295 -11.8635 -8.77291
-5.47318 -11.8963 -8.77265
-1.86524 -11.9105 -8.77287
1.86527 -11.9105 -8.77287
5.47319 -11.8962 -8.77264
8.77294 -11.8635 -8.77291
11.3112 -11.8271 -8.77713
11.9624 -11.9624 -8.7797
-11.8271 -11.3112 -8.77712
-11.2459 -11.2459 -8.76597
-8.75776 -11.2168 -8.75775
-5.46924 -11.2087 -8.75566
-1.86461 -11.2071 -8.75522
1.86459 -11.2071 -8.75522
5.46924 -11.2087 -8.75565
8.7578 -11.2169 -8.75775
11.2459 -11.2459 -8.76598
11.8272 -11.3112 -8.77713
-11.8635 -8.77294 -8.77292
-11.2168 -8.75776 -8.75775
-8.74943 -8.74942 -8.74945
-5.46864 -8.74734 -8.7473
-1.86487 -8.74693 -8.74694
1.86485 -8.74693 -8.74693
5.46863 -8.74732 -8.74728
8.74943 -8.74946 -8.74948
11.2168 -8.75775 -8.75776
11.8635 -8.77294 -8.77293
-11.8963 -5.47318 -8.77263
-11.2087 -5.46924 -8.75563
-8.74735 -5.46864 -8.74731
-5.46969 -5.46967 -8.74525
-1.8656 -5.47031 -8.74487
1.86558 -5.47032 -8.74485
5.46968 -5.46964 -8.74531
8.74727 -5.46868 -8.74728
11.2087 -5.46924 -8.75564
11.8962 -5.47318 -8.77263
-11.9105 -1.86525 -8.77289
-11.2071 -1.86459 -8.75524
-8.74694 -1.86492 -8.74694
-5.47033 -1.86561 -8.7449
-1.86601 -1.86599 -8.74444
1.86598 -1.86601 -8.74448
5.47027 -1.8656 -8.74485
8.74689 -1.86493 -8.74694
11.2071 -1.8646 -8.75525
11.9105 -1.86524 -8.77289
-11.9105 1.86525 -8.77288
-11.2071 1.86456 -8.75522
-8.74693 1.86486 -8.74695
-5.4703 1.86557 -8.74483
-1.86598 1.866 -8.7444
1.86599 1.86598 -8.74437
5.47033 1.86562 -8.74488
8.74693 1.86482 -8.74693
11.2071 1.86458 -8.75521
11.9105 1.86523 -8.77288
-11.8962 5.47315 -8.77266
-11.2087 5.46923 -8.75566
-8.74731 5.46861 -8.74731
-5.46967 5.46965 -8.74527
-1.86562 5.47031 -8.74488
1.86558 5.47029 -8.74489
5.46966 5.46969 -8.74523
8.74722 5.46861 -8.74733
11.2087 5.46922 -8.75566
11.8962 5.47315 -8.77267
-11.8634 8.77293 -8.77295
-11.2168 8.7578 -8.75775
-8.74941 8.74941 -8.74945
-5.4686 8.74728 -8.74733
-1.86486 8.7469 -8.74693
1.86486 8.7469 -8.74691
5.46864 8.7473 -8.74736
8.74941 8.7494 -8.74942
11.2169 8.75779 -8.75777
11.8635 8.77293 -8.77294
-11.8271 11.3111 -8.77715
-11.2459 11.2459 -8.766
-8.75773 11.2168 -8.75775
-5.4692 11.2086 -8.75566
-1.86459 11.2071 -8.75524
1.86456 11.2071 -8.75524
5.46924 11.2086 -8.75565
8.7578 11.2168 -8.75778
11.2459 11.2459 -8.76599
11.8271 11.3111 -8.77715
-11.9624 11.9624 -8.77971
-11.3111 11.8271 -8.77714
-8.77292 11.8635 -8.77294
-5.47315 11.8962 -8.77266
-1.86523 11.9105 -8.77289
1.86526 11.9105 -8.77288
5.47317 11.8962 -8.77265
8.77293 11.8635 -8.77295
11.3112 11.8271 -8.77715
11.9624 11.9624 -8.77972
-11.9946 -11.9946 -5.47043
-11.3052 -11.8622 -5.47193
-8.7726 -11.8962 -5.47317
-5.47497 -11.9276 -5.47501
-1.86617 -11.9413 -5.47593
1.86618 -11.9413 -5.47593
5.47497 -11.9276 -5.47502
8.77261 -11.8962 -5.47316
11.3052 -11.8622 -5.47194
11.9946 -11.9946 -5.47043
-11.8622 -11.3052 -5.47194
-11.2371 -11.2372 -5.46968
-8.75561 -11.2087 -5.46928
-5.47031 -11.2006 -5.47036
-1.86531 -11.199 -5.47094
1.8653 -11.199 -5.47094
5.47028 -11.2006 -5.47036
8.75559 -11.2087 -5.46922
11.2371 -11.2372 -5.46968
11.8622 -11.3052 -5.47192
-11.8962 -8.7726 -5.47316
-11.2087 -8.75561 -5.46923
-8.74732 -8.74731 -5.46867
-5.46967 -8.74522 -5.46963
-1.86561 -8.74486 -5.4703
1.86559 -8.74485 -5.47031
5.46967 -8.74524 -5.46962
8.74731 -8.74728 -5.46869
11.2087 -8.75563 -5.46924
11.8963 -8.77261 -5.47319
-11.9276 -5.47497 -5.47502
-11.2006 -5.47031 -5.47033
-8.74522 -5.46965 -5.46966
-5.47069 -5.47068 -5.47071
-1.86628 -5.47137 -5.47134
1.86635 -5.47135 -5.47134
5.47077 -5.47071 -5.47075
8.74528 -5.46962 -5.46961
11.2006 -5.47033 -5.47035
11.9276 -5.47498 -5.475
-11.9413 -1.86617 -5.47595
-11.199 -1.86532 -5.47097
-8.74486 -1.86561 -5.47032
-5.47137 -1.86631 -5.47138
-1.86674 -1.86675 -5.47197
1.86672 -1.86673 -5.472
5.47134 -1.8663 -5.47132
8.74488 -1.86559 -5.47035
11.199 -1.86531 -5.47096
11.9413 -1.86615 -5.47594
-11.9413 1.8662 -5.47591
-11.199 1.86529 -5.47094
-8.74487 1.8656 -5.4703
-5.47137 1.86633 -5.47131
-1.86676 1.86674 -5.47193
1.86672 1.86671 -5.47192
5.47134 1.86633 -5.47138
8.74486 1.86559 -5.4703
11.199 1.86529 -5.47094
11.9413 1.86616 -5.47593
-11.9276 5.47497 -5.47501
-11.2006 5.47028 -5.47038
-8.74523 5.46969 -5.46965
-5.47067 5.47076 -5.47073
-1.86632 5.47132 -5.4714
1.8664 5.47135 -5.4714
5.47078 5.47073 -5.47069
8.7453 5.4697 -5.46966
11.2007 5.47033 -5.47037
11.9276 5.47498 -5.47501
-11.8963 8.77261 -5.47317
-11.2087 8.7556 -5.46924
-8.74733 8.74729 -5.46871
-5.46968 8.74529 -5.46969
-1.86562 8.74489 -5.4703
1.86561 8.7449 -5.47028
5.46968 8.74526 -5.46972
8.74725 8.7473 -5.46866
11.2087 8.75556 -5.46926
11.8962 8.77262 -5.47317
-11.8622 11.3052 -5.47194
-11.2372 11.2372 -5.46968
-8.75563 11.2087 -5.46923
-5.47032 11.2007 -5.47037
-1.86531 11.199 -5.47094
1.86529 11.199 -5.47095
5.47028 11.2007 -5.47035
8.7556 11.2087 -5.46928
11.2372 11.2372 -5.46968
11.8622 11.3052 -5.47193
-11.9946 11.9946 -5.47044
-11.3052 11.8622 -5.47194
-8.77261 11.8962 -5.47319
-5.47498 11.9276 -5.475
-1.86616 11.9413 -5.47595
1.86618 11.9413 -5.47594
5.47497 11.9276 -5.47501
8.77261 11.8962 -5.47317
11.3052 11.8622 -5.47194
11.9946 11.9946 -5.47043
-12.0083 -12.0083 -1.86371
-11.3041 -11.8772 -1.86449
-8.77287 -11.9105 -1.86525
-5.47592 -11.9413 -1.86621
-1.86665 -11.9548 -1.86667
1.86668 -11.9548 -1.86665
5.47588 -11.9413 -1.86624
8.77286 -11.9105 -1.86526
11.3041 -11.8772 -1.86452
12.0082 -12.0082 -1.8637
-11.8772 -11.3041 -1.86453
-11.2353 -11.2353 -1.86428
-8.75522 -11.2071 -1.86455
-5.47094 -11.199 -1.86534
-1.86573 -11.1972 -1.86574
1.86577 -11.1973 -1.86574
5.47098 -11.199 -1.86536
8.75525 -11.2071 -1.86459
11.2353 -11.2353 -1.86427
11.8772 -11.3041 -1.86451
-11.9105 -8.77288 -1.86525
-11.2071 -8.75523 -1.86459
-8.7469 -8.74692 -1.86493
-5.47029 -8.74487 -1.86556
-1.86599 -8.74444 -1.86602
1.86598 -8.74447 -1.86602
5.47029 -8.74485 -1.86556
8.74685 -8.74693 -1.86495
11.207 -8.75522 -1.86458
11.9104 -8.77288 -1.86523
-11.9413 -5.47595 -1.8662
-11.199 -5.47095 -1.86531
-8.74486 -5.4703 -1.86559
-5.47137 -5.47134 -1.86635
-1.86675 -5.47197 -1.86674
1.86672 -5.47198 -1.86673
5.47134 -5.47135 -1.86638
8.74489 -5.47032 -1.86555
11.199 -5.47094 -1.86532
11.9413 -5.47592 -1.8662
-11.9548 -1.86663 -1.86664
-11.1973 -1.86572 -1.86576
-8.74444 -1.86601 -1.86601
-5.47195 -1.86674 -1.86677
-1.86713 -1.86713 -1.86717
1.86715 -1.86716 -1.86719
5.47193 -1.86673 -1.8667
8.7444 -1.86601 -1.86604
11.1972 -1.86573 -1.86575
11.9548 -1.86666 -1.86665
-11.9548 1.86663 -1.86665
-11.1972 1.86576 -1.86573
-8.74443 1.86599 -1.866
-5.47195 1.86674 -1.86674
-1.86712 1.86714 -1.86708
1.86713 1.86711 -1.86707
5.47194 1.86674 -1.86675
8.74438 1.86598 -1.86601
11.1972 1.86577 -1.86574
11.9548 1.86666 -1.86665
-11.9413 5.47592 -1.86621
-11.199 5.47098 -1.86537
-8.74485 5.47025 -1.86559
-5.47138 5.47135 -1.86634
-1.86674 5.4719 -1.86679
1.86672 5.4719 -1.86678
5.47132 5.47136 -1.86633
8.7449 5.47025 -1.86562
11.199 5.47096 -1.8654
11.9413 5.47589 -1.86624
-11.9105 8.7728 -1.8653
-11.2071 8.75521 -1.86461
-8.7469 8.74686 -1.86495
-5.47028 8.74489 -1.86561
-1.86598 8.74441 -1.866
1.86599 8.7444 -1.86599
5.4703 8.7449 -1.86568
8.74685 8.74684 -1.86492
11.2071 8.75524 -1.86459
11.9104 8.77281 -1.86531
-11.8772 11.3041 -1.86451
-11.2353 11.2353 -1.86432
-8.75522 11.2071 -1.86462
-5.47094 11.199 -1.86538
-1.86573 11.1972 -1.86578
1.86576 11.1972 -1.86577
5.47097 11.199 -1.86537
8.75523 11.207 -1.86461
11.2353 11.2353 -1.86432
11.8772 11.3041 -1.86451
-12.0082 12.0082 -1.86371
-11.3041 11.8772 -1.86452
-8.77287 11.9104 -1.86533
-5.47592 11.9413 -1.86623
-1.86666 11.9548 -1.86668
1.86667 11.9547 -1.86667
5.47591 11.9414 -1.86623
8.77285 11.9104 -1.8653
11.3041 11.8772 -1.86451
12.0083 12.0082 -1.86373
-12.0082 -12.0082 1.86364
-11.3041 -11.8772 1.86443
-8.77287 -11.9105 1.86524
-5.47592 -11.9413 1.86617
-1.86665 -11.9548 1.86665
1.86666 -11.9547 1.86666
5.47588 -11.9413 1.86616
8.77285 -11.9105 1.86525
11.3041 -11.8772 1.86446
12.0082 -12.0083 1.86364
-11.8772 -11.3041 1.86448
-11.2353 -11.2353 1.86425
-8.75524 -11.2071 1.86458
-5.47094 -11.199 1.86526
-1.86574 -11.1972 1.86572
1.86576 -11.1972 1.86572
5.47098 -11.199 1.86528
8.75525 -11.207 1.86462
11.2353 -11.2353 1.86427
11.8772 -11.3041 1.86444
-11.9105 -8.77287 1.86524
-11.2071 -8.75523 1.86461
-8.74691 -8.74692 1.8648
-5.47031 -8.74485 1.86563
-1.86599 -8.74444 1.86598
1.86601 -8.74437 1.86598
5.47027 -8.74487 1.86565
8.74688 -8.74689 1.8648
11.2071 -8.75524 1.86459
11.9105 -8.77288 1.86521
-11.9413 -5.47592 1.86612
-11.199 -5.47094 1.86526
-8.74485 -5.47028 1.8656
-5.47136 -5.47135 1.86623
-1.86675 -5.47194 1.86676
1.86674 -5.47191 1.86676
5.47131 -5.47139 1.86626
8.74489 -5.47026 1.86562
11.1989 -5.47095 1.86526
11.9413 -5.47592 1.86615
-11.9548 -1.86663 1.86663
-11.1972 -1.86574 1.8657
-8.74443 -1.86599 1.86596
-5.47195 -1.86676 1.86672
-1.86713 -1.86715 1.86712
1.86714 -1.86704 1.86707
5.47194 -1.86677 1.86674
8.74442 -1.866 1.86593
11.1972 -1.86575 1.86569
11.9548 -1.86663 1.86663
-11.9548 1.86666 1.86666
-11.1972 1.86575 1.86573
-8.74442 1.86602 1.86596
-5.47193 1.86671 1.86676
-1.86713 1.86715 1.86718
1.86716 1.86719 1.86721
5.47197 1.86668 1.86672
8.74446 1.86605 1.86601
11.1972 1.86574 1.86573
11.9548 1.86667 1.86666
-11.9413 5.47593 1.86611
-11.199 5.47098 1.86525
-8.74485 5.4703 1.86562
-5.47137 5.47132 1.8663
-1.86675 5.47193 1.8667
1.86673 5.472 1.8667
5.47132 5.47128 1.86636
8.74487 5.47032 1.86557
11.199 5.47097 1.86525
11.9413 5.47593 1.86615
-11.9105 8.77283 1.86517
-11.207 8.75522 1.86457
-8.74691 8.74689 1.8648
-5.47031 8.74489 1.86558
-1.86598 8.74439 1.86598
1.86601 8.74452 1.86599
5.47026 8.7448 1.86552
8.74685 8.74695 1.86484
11.2071 8.75521 1.8646
11.9104 8.77283 1.86519
-11.8772 11.3041 1.86442
-11.2353 11.2353 1.86423
-8.75524 11.2071 1.86458
-5.47094 11.199 1.86524
-1.86575 11.1972 1.86571
1.86575 11.1973 1.86571
5.47096 11.1989 1.86528
8.75521 11.2071 1.86452
11.2353 11.2353 1.86419
11.8772 11.3041 1.86441
-12.0082 12.0082 1.86362
-11.3041 11.8772 1.86444
-8.77288 11.9105 1.8652
-5.4759 11.9413 1.86616
-1.86667 11.9548 1.86665
1.86667 11.9549 1.86665
5.4759 11.9412 1.86614
8.77284 11.9105 1.86517
11.3041 11.8772 1.86441
12.0082 12.0082 1.86364
-11.9946 -11.9946 5.47035
-11.3052 -11.8622 5.47188
-8.77261 -11.8962 5.47311
-5.47497 -11.9276 5.47491
-1.86616 -11.9413 5.47591
1.86618 -11.9413 5.4759
5.475 -11.9276 5.47491
8.77261 -11.8962 5.47314
11.3052 -11.8622 5.47187
11.9946 -11.9946 5.47036
-11.8622 -11.3052 5.47188
-11.2372 -11.2372 5.46958
-8.75562 -11.2087 5.46924
-5.47031 -11.2006 5.47026
-1.86532 -11.199 5.47091
1.86529 -11.199 5.4709
5.47028 -11.2006 5.47024
8.7556 -11.2087 5.46925
11.2371 -11.2372 5.46958
11.8622 -11.3052 5.47188
-11.8962 -8.77263 5.47314
-11.2087 -8.75564 5.46922
-8.74731 -8.74731 5.46857
-5.46965 -8.74524 5.46973
-1.86561 -8.74484 5.47025
1.86559 -8.74488 5.47024
5.46968 -8.74523 5.46971
8.74731 -8.74732 5.46853
11.2086 -8.75563 5.46925
11.8962 -8.77262 5.47314
-11.9276 -5.47499 5.47491
-11.2006 -5.47032 5.47031
-8.74523 -5.46966 5.46971
-5.47067 -5.47067 5.47059
-1.86633 -5.47135 5.47138
1.86636 -5.47137 5.47138
5.47075 -5.47067 5.47065
8.74528 -5.46966 5.46973
11.2007 -5.47031 5.47026
11.9276 -5.47498 5.47492
-11.9413 -1.86617 5.47589
-11.199 -1.86531 5.47086
-8.74485 -1.8656 5.47023
-5.47136 -1.8663 5.47138
-1.86674 -1.86674 5.47191
1.86672 -1.86678 5.47188
5.47135 -1.86629 5.47138
8.74487 -1.8656 5.47021
11.199 -1.86531 5.47089
11.9413 -1.86619 5.47589
-11.9413 1.86617 5.47589
-11.199 1.86527 5.4709
-8.74485 1.86559 5.47022
-5.47137 1.86634 5.47133
-1.86675 1.86672 5.47198
1.86672 1.86669 5.47198
5.4713 1.86636 5.4713
8.74485 1.86558 5.47021
11.1989 1.86528 5.47095
11.9413 1.86615 5.47589
-11.9276 5.47496 5.47496
-11.2006 5.47028 5.47024
-8.74521 5.46965 5.46971
-5.47066 5.47074 5.47069
-1.86631 5.47136 5.47128
1.86639 5.4713 5.47135
5.47074 5.47079 5.47071
8.74531 5.46965 5.4697
11.2007 5.47031 5.47023
11.9276 5.47502 5.47493
-11.8963 8.7726 5.47313
-11.2087 8.75556 5.46922
-8.74732 8.74727 5.46855
-5.46966 8.74526 5.46968
-1.86561 8.74488 5.47022
1.86558 8.74485 5.47025
5.46969 8.7453 5.46962
8.7473 8.74724 5.46857
11.2087 8.75558 5.46923
11.8962 8.77265 5.47313
-11.8622 11.3053 5.47191
-11.2372 11.2371 5.46957
-8.75561 11.2087 5.46923
-5.47031 11.2006 5.47025
-1.86531 11.199 5.4709
1.86532 11.1989 5.47089
5.47032 11.2007 5.47026
8.75558 11.2086 5.46922
11.2372 11.2371 5.46961
11.8622 11.3052 5.47191
-11.9946 11.9946 5.47036
-11.3052 11.8622 5.4719
-8.77261 11.8962 5.47311
-5.47498 11.9276 5.47492
-1.86617 11.9413 5.47587
1.8662 11.9413 5.47587
5.47501 11.9277 5.47492
8.77266 11.8962 5.47312
11.3053 11.8622 5.4719
11.9947 11.9946 5.47035
-11.9624 -11.9624 8.77968
-11.3111 -11.8271 8.77707
-8.77291 -11.8634 8.77283