# vtk DataFile Version 3.0 
Lennard-Jones particle simulation 
ASCII 
DATASET UNSTRUCTURED_GRID 
POINTS 1000 float 
-5.11141 -5.11141 -5.11142
-3.40393 -5.08352 -5.08352
-1.39044 -5.08601 -5.08601
0.88511 -5.0903 -5.09031
3.28149 -5.09256 -5.09256
5.71852 -5.09256 -5.09256
8.11491 -5.09031 -5.09031
10.3904 -5.086 -5.08601
12.4039 -5.08352 -5.08353
14.1114 -5.11141 -5.11141
-5.08352 -3.40393 -5.08352
-3.39078 -3.39078 -5.046
-1.3873 -3.39133 -5.04697
0.885221 -3.39267 -5.05107
3.28135 -3.39347 -5.05336
5.71863 -3.39347 -5.05336
8.11478 -3.39267 -5.05107
10.3873 -3.39133 -5.04697
12.3908 -3.39078 -5.046
14.0835 -3.40393 -5.08353
-5.08601 -1.39044 -5.08601
-3.39133 -1.3873 -5.04697
-1.38876 -1.38876 -5.04743
0.883787 -1.39015 -5.05128
3.28082 -1.3908 -5.05352
5.7192 -1.3908 -5.05352
8.11622 -1.39015 -5.05128
10.3888 -1.38876 -5.04743
12.3913 -1.38729 -5.04698
14.086 -1.39044 -5.08601
-5.09031 0.885109 -5.09031
-3.39267 0.885218 -5.05108
-1.39015 0.883795 -5.05129
0.882549 0.882549 -5.05496
3.28031 0.881972 -5.05713
5.71969 0.881971 -5.05713
8.11745 0.88255 -5.05498
10.3901 0.883789 -5.05127
12.3927 0.885226 -5.05107
14.0903 0.885106 -5.09031
-5.09256 3.2815 -5.09257
-3.39347 3.28136 -5.05336
-1.39081 3.28082 -5.05351
0.881965 3.28031 -5.05715
3.28007 3.28007 -5.05924
5.71993 3.28007 -5.05925
8.11802 3.28031 -5.05712
10.3908 3.28082 -5.05353
12.3935 3.28136 -5.05336
14.0925 3.2815 -5.09256
-5.09256 5.7185 -5.09256
-3.39346 5.71864 -5.05335
-1.39081 5.71919 -5.05352
0.88197 5.71969 -5.05711
3.28008 5.71992 -5.05923
5.71993 5.71992 -5.05923
8.11804 5.71969 -5.05713
10.3908 5.71919 -5.05351
12.3935 5.71865 -5.05336
14.0926 5.71851 -5.09256
-5.09031 8.11491 -5.09032
-3.39267 8.11478 -5.05109
-1.39016 8.11623 -5.05129
0.882545 8.11744 -5.05498
3.28031 8.11803 -5.05714
5.71968 8.11802 -5.05714
8.11744 8.11744 -5.05497
10.3901 8.11621 -5.05129
12.3927 8.11477 -5.05108
14.0903 8.1149 -5.09032
-5.08601 10.3904 -5.08601
-3.39133 10.3873 -5.04697
-1.38876 10.3888 -5.04743
0.883787 10.3901 -5.05129
3.28082 10.3908 -5.05351
5.7192 10.3908 -5.05352
8.11622 10.3902 -5.0513
10.3888 10.3888 -5.04743
12.3913 10.3873 -5.04697
14.086 10.3904 -5.08601
-5.08352 12.4039 -5.08353
-3.39078 12.3908 -5.046
-1.3873 12.3913 -5.04697
0.88522 12.3927 -5.05108
3.28136 12.3935 -5.05337
5.71863 12.3935 -5.05336
8.11479 12.3927 -5.05108
10.3873 12.3913 -5.04698
12.3908 12.3908 -5.046
14.0835 12.4039 -5.08353
-5.11141 14.1114 -5.11142
-3.40393 14.0835 -5.08353
-1.39044 14.086 -5.08601
0.885106 14.0903 -5.09031
3.28149 14.0926 -5.09257
5.71851 14.0926 -5.09257
8.1149 14.0903 -5.09031
10.3904 14.086 -5.08601
12.4039 14.0835 -5.08353
14.1114 14.1114 -5.11142
-5.08352 -5.08352 -3.40393
-3.39078 -5.046 -3.39078
-1.3873 -5.04697 -3.39133
0.885223 -5.05107 -3.39267
3.28136 -5.05336 -3.39347
5.71863 -5.05336 -3.39347
8.11479 -5.05107 -3.39267
10.3873 -5.04697 -3.39133
12.3908 -5.046 -3.39079
14.0835 -5.08352 -3.40393
-5.046 -3.39078 -3.39078
-3.36962 -3.36962 -3.36962
-1.38004 -3.36844 -3.36843
0.887249 -3.36915 -3.36915
3.28176 -3.36976 -3.36976
5.71825 -3.36976 -3.36976
8.11274 -3.36915 -3.36915
10.3801 -3.36844 -3.36843
12.3696 -3.36962 -3.36962
14.046 -3.39078 -3.39078
-5.04698 -1.3873 -3.39133
-3.36844 -1.38004 -3.36843
-1.38052 -1.38051 -3.36682
0.88628 -1.38146 -3.36732
3.28134 -1.38195 -3.36791
5.71866 -1.38195 -3.3679
8.11372 -1.38146 -3.36732
10.3805 -1.38051 -3.36683
12.3684 -1.38004 -3.36844
14.047 -1.3873 -3.39134
-5.05106 0.885221 -3.39267
-3.36914 0.887258 -3.36915
-1.38146 0.886282 -3.36734
0.885239 0.885242 -3.36774
3.28091 0.884751 -3.36827
5.71909 0.884752 -3.36827
8.11476 0.885241 -3.36776
10.3815 0.886285 -3.36732
12.3692 0.887254 -3.36914
14.0511 0.88522 -3.39267
-5.05336 3.28136 -3.39347
-3.36976 3.28176 -3.36977
-1.38195 3.28134 -3.3679
0.88475 3.2809 -3.36829
3.28068 3.28068 -3.36876
5.71933 3.28069 -3.36877
8.11527 3.28089 -3.36827
10.3819 3.28135 -3.36792
12.3698 3.28177 -3.36976
14.0534 3.28136 -3.39347
-5.05337 5.71864 -3.39346
-3.36978 5.71824 -3.36976
-1.38196 5.71865 -3.36791
0.884745 5.7191 -3.36826
3.28067 5.71933 -3.36875
5.71933 5.71932 -3.36875
8.11526 5.7191 -3.36828
10.3819 5.71865 -3.3679
12.3698 5.71823 -3.36976
14.0534 5.71864 -3.39347
-5.05107 8.11478 -3.39268
-3.36914 8.11275 -3.36916
-1.38146 8.11371 -3.36733
0.885238 8.11476 -3.36776
3.28091 8.11526 -3.36828
5.7191 8.11527 -3.36829
8.11477 8.11476 -3.36774
10.3815 8.11372 -3.36734
12.3692 8.11275 -3.36915
14.0511 8.11479 -3.39268
-5.04698 10.3873 -3.39134
-3.36844 10.3801 -3.36844
-1.38051 10.3805 -3.36683
0.886282 10.3815 -3.36734
3.28134 10.382 -3.3679
5.71865 10.382 -3.3679
8.11372 10.3815 -3.36735
10.3805 10.3805 -3.36682
12.3684 10.3801 -3.36844
14.047 10.3873 -3.39134
-5.046 12.3908 -3.39079
-3.36962 12.3696 -3.36963
-1.38004 12.3684 -3.36844
0.887246 12.3692 -3.36916
3.28176 12.3698 -3.36977
5.71824 12.3698 -3.36977
8.11274 12.3692 -3.36915
10.3801 12.3684 -3.36845
12.3696 12.3696 -3.36962
14.046 12.3908 -3.39079
-5.08353 14.0835 -3.40393
-3.39079 14.046 -3.39079
-1.38731 14.047 -3.39134
0.885219 14.0511 -3.39267
3.28135 14.0534 -3.39347
5.71862 14.0534 -3.39347
8.11479 14.0511 -3.39268
10.3873 14.047 -3.39134
12.3908 14.046 -3.39079
14.0835 14.0835 -3.40393
-5.08601 -5.08601 -1.39045
-3.39134 -5.04698 -1.3873
-1.38877 -5.04742 -1.38876
0.883782 -5.05129 -1.39016
3.28081 -5.05352 -1.3908
5.7192 -5.05352 -1.3908
8.11622 -5.05129 -1.39016
10.3888 -5.04744 -1.38876
12.3913 -5.04698 -1.38731
14.086 -5.08601 -1.39045
-5.04698 -3.39134 -1.3873
-3.36844 -3.36845 -1.38004
-1.38052 -3.36682 -1.38051
0.886277 -3.36734 -1.38147
3.28134 -3.36791 -1.38195
5.71866 -3.36791 -1.38195
8.11372 -3.36733 -1.38146
10.3805 -3.36683 -1.38051
12.3684 -3.36844 -1.38005
14.047 -3.39134 -1.38731
-5.04742 -1.38877 -1.38876
-3.36682 -1.38052 -1.38051
-1.38075 -1.38075 -1.38075
0.885405 -1.38159 -1.38157
3.28095 -1.38204 -1.38205
5.71904 -1.38205 -1.38204
8.11459 -1.38158 -1.38157
10.3807 -1.38076 -1.38076
12.3668 -1.38051 -1.38052
14.0474 -1.38877 -1.38876
-5.05129 0.883784 -1.39015
-3.36735 0.886277 -1.38146
-1.38159 0.885405 -1.38158
0.884413 0.88442 -1.38237
3.28052 0.883934 -1.38282
5.71947 0.883929 -1.38282
8.11558 0.884429 -1.3824
10.3816 0.885391 -1.38157
12.3673 0.886278 -1.38146
14.0513 0.883783 -1.39015
-5.05353 3.28081 -1.39081
-3.36791 3.28134 -1.38195
-1.38205 3.28094 -1.38205
0.883926 3.28052 -1.38283
3.2803 3.28031 -1.38324
5.71969 3.2803 -1.38326
8.11605 3.28053 -1.38282
10.382 3.28093 -1.38205
12.3679 3.28134 -1.38195
14.0535 3.28081 -1.39081
-5.05353 5.71919 -1.3908
-3.36792 5.71865 -1.38194
-1.38204 5.71904 -1.38205
0.883935 5.71947 -1.3828
3.28031 5.71969 -1.38323
5.7197 5.71969 -1.38322
8.11607 5.71949 -1.38283
10.382 5.71903 -1.38204
12.3679 5.71865 -1.38194
14.0535 5.71918 -1.39081
-5.05127 8.11621 -1.39016
-3.36733 8.11372 -1.38147
-1.38158 8.11458 -1.38158
0.884418 8.11557 -1.38238
3.28052 8.11606 -1.38283
5.71947 8.11606 -1.38283
8.11558 8.11559 -1.38237
10.3816 8.11458 -1.38159
12.3673 8.11372 -1.38147
14.0513 8.11621 -1.39017
-5.04741 10.3888 -1.38877
-3.36681 10.3805 -1.38051
-1.38074 10.3807 -1.38076
0.885419 10.3816 -1.38159
3.28096 10.382 -1.38204
5.71905 10.382 -1.38204
8.11459 10.3816 -1.3816
10.3807 10.3807 -1.38075
12.3668 10.3805 -1.38052
14.0474 10.3888 -1.38877
-5.04697 12.3913 -1.38731
-3.36843 12.3684 -1.38005
-1.38051 12.3668 -1.38051
0.886288 12.3673 -1.38147
3.28134 12.3679 -1.38195
5.71865 12.3679 -1.38195
8.11372 12.3673 -1.38146
10.3805 12.3668 -1.38053
12.3684 12.3684 -1.38005
14.047 12.3913 -1.38731
-5.086 14.086 -1.39045
-3.39132 14.047 -1.38731
-1.38876 14.0474 -1.38877
0.883793 14.0513 -1.39016
3.28082 14.0535 -1.39081
5.7192 14.0535 -1.39081
8.11622 14.0513 -1.39016
10.3888 14.0474 -1.38877
12.3913 14.047 -1.38731
14.086 14.086 -1.39045
-5.09029 -5.09029 0.885093
-3.39265 -5.05106 0.885218
-1.39014 -5.05128 0.883787
0.882556 -5.05496 0.882541
3.28032 -5.05713 0.881968
5.71969 -5.05713 0.881968
8.11744 -5.05496 0.882537
10.3901 -5.05127 0.883791
12.3927 -5.05106 0.885213
14.0903 -5.0903 0.885093
-5.05106 -3.39265 0.885215
-3.36913 -3.36913 0.88725
-1.38145 -3.36733 0.886264
0.885244 -3.36774 0.885226
3.28091 -3.36827 0.884751
5.71909 -3.36827 0.884749
8.11474 -3.36774 0.885229
10.3814 -3.36732 0.886283
12.3691 -3.36914 0.887248
14.051 -3.39266 0.885222
-5.05128 -1.39014 0.88379
-3.36733 -1.38145 0.88628
-1.38158 -1.38158 0.885395
0.88442 -1.38237 0.884434
3.28052 -1.38282 0.883933
5.71948 -1.38282 0.883931
8.11558 -1.38237 0.884438
10.3816 -1.38157 0.885387
12.3673 -1.38145 0.886275
14.0513 -1.39014 0.883779
-5.05496 0.882557 0.88254
-3.36773 0.885243 0.885238
-1.38236 0.884427 0.884421
0.883458 0.88346 0.883449
3.28012 0.882959 0.88297
5.71991 0.882966 0.882972
8.11657 0.88345 0.883432
10.3824 0.884438 0.884441
12.3678 0.885238 0.885229
14.055 0.882554 0.882545
-5.05713 3.28032 0.881961
-3.36827 3.28091 0.88474
-1.38282 3.28052 0.883926
0.882961 3.28011 0.882957
3.27988 3.27988 0.882493
5.72011 3.27988 0.882481
8.11703 3.28011 0.882976
10.3828 3.28053 0.883919
12.3683 3.28091 0.884744
14.0571 3.28033 0.881962
-5.05713 5.71969 0.881973
-3.36827 5.71908 0.884752
-1.38282 5.71948 0.883932
0.882961 5.7199 0.882979
3.27987 5.72012 0.882511
5.72011 5.72011 0.882516
8.11703 5.7199 0.882956
10.3828 5.71948 0.883935
12.3683 5.71908 0.88475
14.0571 5.71968 0.881966
-5.05496 8.11744 0.882541
-3.36774 8.11474 0.885219
-1.38237 8.11558 0.884427
0.883464 8.11657 0.883443
3.28011 8.11702 0.882948
5.71993 8.11703 0.88295
8.11658 8.11656 0.883457
10.3824 8.11559 0.884421
12.3678 8.11476 0.885222
14.055 8.11745 0.882537
-5.05129 10.3901 0.883785
-3.36734 10.3814 0.886277
-1.38159 10.3816 0.885381
0.884415 10.3824 0.88441
3.28052 10.3828 0.883932
5.71948 10.3828 0.883941
8.11558 10.3824 0.8844
10.3816 10.3816 0.885399
12.3673 10.3814 0.886266
14.0513 10.3901 0.883782
-5.05106 12.3927 0.885213
-3.36914 12.3691 0.887246
-1.38145 12.3673 0.886277
0.885243 12.3678 0.885222
3.28091 12.3683 0.884749
5.71909 12.3683 0.884746
8.11474 12.3678 0.885232
[...]
POINT_DATA 1000
SCALARS mass float 
LOOKUP_TABLE default 
1
1
1
1
1
1
1
1
1
1
1
1
1
1
1
1
1
1
1
1
1
1
1
1
1
1
1
1
1
1
1
1
1
1
1
1
1
1
1
1
1
1
1
1
1
1
1
1
1
1
1
1
1
1
1
1
1
1
1
1
1
1
1
1
1
1
1
1
1
1
1
1
1
1
1
1
1
1
1
1
1
1
1
1
1
1
1
1
1
1
1
1
1
1
1
1
1
1
1
1
1
1
1
1
1
1
1
1
1
1
1
1
1
1
1
1
1
1
1
1
1
1
1
1
1
1
1
1
1
1
1
1
1
1
1
1
1
1
1
1
1
1
1
1
1
1
1
1
1
1
1
1
1
1
1
1
1
1
1
1
1
1
1
1
1
1
1
1
1
1
1
1
1
1
1
1
1
1
1
1
1
1
1
1
1
1
1
1
1
1
1
1
1
1
1
1
1
1
1
1
1
1
1
1
1
1
1
1
1
1
1
1
1
1
1
1
1
1
1
1
1
1
1
1
1
1
1
1
1
1
1
1
1
1
1
1
1
1
1
1
1
1
1
1
1
1
1
1
1
1
1
1
1
1
1
1
1
1
1
1
1
1
1
1
1
1
1
1
1
1
1
1
1
1
1
1
1
1
1
1
1
1
1
1
1
1
1
1
1
1
1
1
1
1
1
1
1
1
1
1
1
1
1
1
1
1
1
1
1
1
1
1
1
1
1
1
1
1
1
1
1
1
1
1
1
1
1
1
1
1
1
1
1
1
1
1
1
1
1
1
1
1
1
1
1
1
1
1
1
1
1
1
1
1
1
1
1
1
1
1
1
1
1
1
1
1
1
1
1
1
1
1
1
1
1
1
1
1
1
1
1
1
1
1
1
1
1
1
1
1
1
1
1
1
1
1
1
1
1
1
1
1
1
1
1
1
1
1
1
1
1
1
1
1
1
1
1
1
1
1
1
1
1
1
1
1
1
1
1
1
1
1
1
1
1
1
1
1
1
1
1
1
1
1
1
1
1
1
1
1
1
1
1
1
1
1
1
1
1
1
1
1
1
1
1
1
1
1
1
1
1
1
1
1
1
1
1
1
1
1
1
1
1
1
1
1
1
1
1
1
1
1
1
1
1
1
1
1
1
1
1
1
1
1
1
1
1
1
1
1
1
1
1
1
1
1
1
1
1
1
1
1
1
1
1
1
1
1
1
1
1
1
1
1
1
1
1
1
1
1
1
1
1
1
1
1
1
1
1
1
1
1
1
1
1
1
1
1
1
1
1
1
1
1
1
1
1
1
1
1
1
1
1
1
1
1
1
1
1
1
1
1
1
1
1
1
1
1
1
1
1
1
1
1
1
1
1
1
1
1
1
1
1
1
1
1
1
1
1
1
1
1
1
1
1
1
1
1
1
1
1
1
1
1
1
1
1
1
1
1
1
1
1
1
1
1
1
1
1
1
1
1
1
1
1
1
1
1
1
1
1
1
1
1
1
1
1
1
1
1
1
1
1
1
1
1
1
1
1
1
1
1
1
1
1
1
1
1
1
1
1
1
1
1
1
1
1
1
1
1
1
1
1
1
1
1
1
1
1
1
1
1
1
1
1
1
1
1
1
1
1
1
1
1
1
1
1
1
1
1
1
1
1
1
1
1
1
1
1
1
1
1
1
1
1
1
1
1
1
1
1
1
1
1
1
1
1
1
1
1
1
1
1
1
1
1
1
1
1
1
1
1
1
1
1
1
1
1
1
1
1
1
1
1
1
1
1
1
1
1
1
1
1
1
1
1
1
1
1
1
1
1
1
1
1
1
1
1
1
1
1
1
1
1
1
1
1
1
1
1
1
1
1
1
1
1
1
1
1
1
1
1
1
1
1
1
1
1
1
1
1
1
1
1
1
1
1
1
1
1
1
1
1
1
1
1
1
1
1
1
1
1
1
1
1
1
1
1
1
1
1
1
1
1
1
1
1
1
1
1
1
1
1
1
1
1
1
1
1
1
1
1
1
1
1
1
1
1
1
1
1
1
1
1
1
1
1
1
1
1
1
1
1
1
1
1
1
1
1
1
1
1
1
1
1
1
1
1
1
1
1
1
1
1
1
1
1
1
1
1
1
1
1
1
1
1
1
1
1
1
1
1
1
1
1
1
1
1
1
1
1
1
1
1
1
1
1
1
1
1
1
1
1
1
1
1
1
1
1
1
1
1
1
1
1
1
1
1
1
1
1
1
1
1
1
1
1
1
1
1
1
1
1
1
1
1
1
1
1
1
VECTORS velocity float 
-12.2922 -12.2922 -12.2923
-11.1819 -12.199 -12.199
-8.74105 -12.2184 -12.2184
-5.46166 -12.2397 -12.2397
-1.86132 -12.2497 -12.2497
1.86134 -12.2497 -12.2497
5.46171 -12.2397 -12.2397
8.74105 -12.2184 -12.2184
11.1819 -12.199 -12.199
12.2923 -12.2923 -12.2923
-12.199 -11.1819 -12.199
-11.1347 -11.1347 -12.0804
-8.73381 -11.1309 -12.0985
-5.46244 -11.1321 -12.1212
-1.86202 -11.1335 -12.1319
1.86197 -11.1334 -12.1319
5.46245 -11.1321 -12.1212
8.7338 -11.1309 -12.0985
11.1346 -11.1346 -12.0804
12.199 -11.1819 -12.199
-12.2184 -8.74107 -12.2184
-11.1309 -8.7338 -12.0985
-8.73393 -8.73393 -12.115
-5.46478 -8.73507 -12.1368
-1.86304 -8.73574 -12.1474
1.86308 -8.73574 -12.1474
5.4648 -8.73507 -12.1368
8.73392 -8.73393 -12.1151
11.1309 -8.73379 -12.0985
12.2184 -8.74104 -12.2184
-12.2397 -5.46166 -12.2397
-11.1321 -5.46246 -12.1212
-8.73508 -5.46476 -12.1368
-5.46701 -5.46701 -12.1578
-1.86412 -5.46805 -12.1681
1.86412 -5.46805 -12.1681
5.46702 -5.46701 -12.1579
8.73507 -5.46478 -12.1368
11.1321 -5.46243 -12.1211
12.2397 -5.46167 -12.2397
-12.2497 -1.86129 -12.2497
-11.1335 -1.862 -12.132
-8.73575 -1.86304 -12.1474
-5.46807 -1.86412 -12.1681
-1.86463 -1.86462 -12.1782
1.86464 -1.86462 -12.1782
5.46801 -1.86412 -12.1681
8.73571 -1.86304 -12.1474
11.1334 -1.86201 -12.132
12.2497 -1.86131 -12.2497
-12.2497 1.86129 -12.2497
-11.1334 1.86202 -12.1319
-8.73575 1.86307 -12.1474
-5.46806 1.86411 -12.168
-1.8646 1.8646 -12.1781
1.86463 1.86461 -12.1781
5.46807 1.86411 -12.1681
8.73577 1.86308 -12.1473
11.1335 1.86202 -12.1319
12.2498 1.86132 -12.2497
-12.2397 5.46172 -12.2398
-11.1321 5.46246 -12.1212
-8.7351 5.46485 -12.1368
-5.46701 5.46698 -12.1578
-1.86413 5.46804 -12.1681
1.86408 5.46803 -12.1681
5.46698 5.46698 -12.1578
8.73508 5.46477 -12.1368
11.1321 5.46243 -12.1212
12.2397 5.46168 -12.2397
-12.2184 8.74104 -12.2184
-11.1309 8.73378 -12.0985
-8.73394 8.73393 -12.1151
-5.46478 8.73509 -12.1368
-1.86303 8.73575 -12.1473
1.86309 8.73576 -12.1474
5.4648 8.73509 -12.1369
8.73392 8.73393 -12.115
11.1309 8.73382 -12.0985
12.2184 8.74106 -12.2184
-12.199 11.1819 -12.199
-11.1347 11.1346 -12.0804
-8.73381 11.1309 -12.0985
-5.46245 11.1321 -12.1212
-1.862 11.1335 -12.132
1.86198 11.1335 -12.132
5.46247 11.1321 -12.1212
8.73379 11.1309 -12.0985
11.1346 11.1347 -12.0804
12.199 11.1819 -12.199
-12.2923 12.2923 -12.2923
-11.1819 12.199 -12.199
-8.74106 12.2184 -12.2184
-5.46167 12.2397 -12.2397
-1.86131 12.2497 -12.2497
1.86133 12.2497 -12.2497
5.46169 12.2397 -12.2397
8.74106 12.2184 -12.2184
11.1819 12.199 -12.199
12.2923 12.2923 -12.2923
-12.199 -12.199 -11.1819
-11.1347 -12.0804 -11.1347
-8.73381 -12.0985 -11.1309
-5.46244 -12.1211 -11.1321
-1.86202 -12.132 -11.1335
1.86196 -12.132 -11.1335
5.46248 -12.1211 -11.1321
8.73378 -12.0985 -11.1309
11.1346 -12.0804 -11.1347
12.199 -12.199 -11.1819
-12.0804 -11.1347 -11.1347
-11.0593 -11.0593 -11.0593
-8.71459 -11.0499 -11.0499
-5.45814 -11.0492 -11.0492
-1.8613 -11.0502 -11.0502
1.86133 -11.0502 -11.0502
5.45808 -11.0492 -11.0492
8.71465 -11.0499 -11.0499
11.0594 -11.0593 -11.0593
12.0804 -11.1347 -11.1347
-12.0985 -8.7338 -11.1309
-11.0499 -8.71459 -11.0499
-8.71147 -8.71145 -11.0393
-5.45903 -8.71096 -11.0382
-1.862 -8.71105 -11.0391
1.86198 -8.71104 -11.0391
5.45904 -8.71098 -11.0382
8.71147 -8.71145 -11.0393
11.0499 -8.7146 -11.0499
12.0985 -8.73381 -11.1309
-12.1211 -5.46245 -11.1321
-11.0492 -5.4581 -11.0492
-8.71098 -5.45902 -11.0382
-5.46056 -5.46056 -11.0369
-1.86281 -5.46129 -11.0376
1.86283 -5.46129 -11.0376
5.46058 -5.46056 -11.0369
8.71099 -5.45902 -11.0382
11.0492 -5.45812 -11.0492
12.1212 -5.46245 -11.1321
-12.1319 -1.86201 -11.1335
-11.0502 -1.8613 -11.0502
-8.71104 -1.86199 -11.0391
-5.46129 -1.86286 -11.0377
-1.86328 -1.86329 -11.0383
1.8633 -1.86326 -11.0383
5.46135 -1.86288 -11.0376
8.71106 -1.86197 -11.0392
11.0502 -1.86129 -11.0502
12.132 -1.86201 -11.1335
-12.132 1.86201 -11.1334
-11.0502 1.8613 -11.0502
-8.71108 1.86197 -11.0391
-5.46131 1.86286 -11.0376
-1.86331 1.86331 -11.0382
1.8633 1.86329 -11.0382
5.46134 1.86286 -11.0376
8.71106 1.86195 -11.0391
11.0502 1.86128 -11.0502
12.132 1.862 -11.1335
-12.1211 5.46247 -11.1321
-11.0492 5.45813 -11.0493
-8.71099 5.45901 -11.0382
-5.46056 5.46055 -11.0369
-1.86282 5.46134 -11.0377
1.86284 5.46135 -11.0377
5.46058 5.46056 -11.0369
8.71101 5.45904 -11.0383
11.0493 5.45812 -11.0492
12.1212 5.46248 -11.1321
-12.0985 8.73379 -11.1309
-11.0499 8.71463 -11.0499
-8.71146 8.71149 -11.0393
-5.45902 8.71102 -11.0382
-1.86201 8.71107 -11.0391
1.86196 8.71107 -11.0391
5.45902 8.711 -11.0383
8.71149 8.7115 -11.0393
11.0498 8.71463 -11.0499
12.0985 8.73378 -11.1309
-12.0804 11.1346 -11.1347
-11.0593 11.0593 -11.0593
-8.7146 11.0498 -11.0499
-5.45814 11.0493 -11.0493
-1.86131 11.0502 -11.0502
1.86133 11.0502 -11.0502
5.45808 11.0493 -11.0492
8.71465 11.0498 -11.0499
11.0594 11.0594 -11.0593
12.0804 11.1346 -11.1347
-12.199 12.199 -11.1819
-11.1347 12.0804 -11.1347
-8.73382 12.0985 -11.131
-5.46245 12.1212 -11.1321
-1.86202 12.132 -11.1335
1.86196 12.132 -11.1335
5.46248 12.1212 -11.1321
8.73379 12.0985 -11.1309
11.1346 12.0804 -11.1347
12.199 12.199 -11.1819
-12.2184 -12.2184 -8.74108
-11.1309 -12.0985 -8.73381
-8.73396 -12.115 -8.73392
-5.4648 -12.1368 -8.73509
-1.86306 -12.1474 -8.73574
1.86309 -12.1474 -8.73575
5.46481 -12.1368 -8.73509
8.73394 -12.1151 -8.73392
11.131 -12.0985 -8.73382
12.2184 -12.2184 -8.74107
-12.0985 -11.1309 -8.7338
-11.0499 -11.0499 -8.7146
-8.71147 -11.0393 -8.71146
-5.45904 -11.0383 -8.711
-1.862 -11.0391 -8.71104
1.86198 -11.0391 -8.71104
5.45904 -11.0382 -8.71099
8.7115 -11.0393 -8.71145
11.0499 -11.0499 -8.71461
12.0985 -11.1309 -8.73382
-12.115 -8.73395 -8.73393
-11.0393 -8.71147 -8.71146
-8.7078 -8.7078 -8.70782
-5.45974 -8.70712 -8.70708
-1.86261 -8.70713 -8.70713
1.8626 -8.70713 -8.70713
5.45974 -8.70711 -8.70707
8.7078 -8.70783 -8.70785
11.0393 -8.71146 -8.71147
12.1151 -8.73395 -8.73394
-12.1368 -5.4648 -8.73508
-11.0383 -5.45904 -8.71097
-8.70713 -5.45975 -8.70709
-5.46118 -5.46116 -8.70634
-1.86346 -5.46191 -8.70633
1.86343 -5.46192 -8.70632
5.46118 -5.46114 -8.70639
8.70706 -5.45979 -8.70706
11.0382 -5.45904 -8.71098
12.1368 -5.4648 -8.73507
-12.1474 -1.86307 -8.73576
-11.0391 -1.86199 -8.71106
-8.70713 -1.86266 -8.70714
-5.46193 -1.86346 -8.70637
-1.86389 -1.86387 -8.70628
1.86385 -1.86389 -8.70632
5.46187 -1.86345 -8.70632
8.70708 -1.86267 -8.70714
11.0391 -1.86199 -8.71107
12.1474 -1.86305 -8.73576
-12.1474 1.86307 -8.73575
-11.0392 1.86195 -8.71104
-8.70713 1.8626 -8.70714
-5.46191 1.86342 -8.70629
-1.86386 1.86388 -8.70624
1.86388 1.86386 -8.70622
5.46194 1.86347 -8.70634
8.70712 1.86256 -8.70713
11.0391 1.86198 -8.71104
12.1474 1.86305 -8.73575
-12.1368 5.46477 -8.73511
-11.0382 5.45904 -8.711
-8.70709 5.45972 -8.70709
-5.46117 5.46115 -8.70636
-1.86347 5.46192 -8.70635
1.86343 5.46189 -8.70636
5.46116 5.46118 -8.70632
8.707 5.45971 -8.70712
11.0382 5.45902 -8.711
12.1367 5.46477 -8.73512
-12.115 8.73393 -8.73395
-11.0393 8.7115 -8.71145
-8.70778 8.70778 -8.70782
-5.4597 8.70706 -8.70712
-1.8626 8.7071 -8.70713
1.8626 8.7071 -8.7071
5.45974 8.70709 -8.70714
8.70778 8.70777 -8.70779
11.0393 8.71149 -8.71147
12.1151 8.73393 -8.73394
-12.0985 11.1309 -8.73383
-11.0499 11.0499 -8.71462
-8.71144 11.0393 -8.71146
-5.459 11.0382 -8.711
-1.86199 11.0391 -8.71106
1.86195 11.0391 -8.71107
5.45904 11.0382 -8.71098
8.7115 11.0393 -8.71149
11.0498 11.0499 -8.71461
12.0985 11.1309 -8.73383
-12.2183 12.2184 -8.74109
-11.1309 12.0985 -8.73383
-8.73392 12.115 -8.73395
-5.46477 12.1368 -8.7351
-1.86305 12.1474 -8.73576
1.86309 12.1474 -8.73576
5.46479 12.1368 -8.73509
8.73394 12.115 -8.73396
11.1309 12.0985 -8.73383
12.2184 12.2184 -8.74109
-12.2397 -12.2397 -5.46171
-11.132 -12.1211 -5.46246
-8.73505 -12.1368 -5.46478
-5.46699 -12.1578 -5.46703
-1.8641 -12.1681 -5.46806
1.86411 -12.1681 -5.46806
5.46699 -12.1578 -5.46704
8.73506 -12.1368 -5.46478
11.132 -12.1211 -5.46246
12.2397 -12.2397 -5.4617
-12.1211 -11.132 -5.46247
-11.0492 -11.0492 -5.45813
-8.71095 -11.0382 -5.45909
-5.46055 -11.0369 -5.4606
-1.86282 -11.0376 -5.46129
1.86282 -11.0376 -5.4613
5.46051 -11.0369 -5.46059
8.71093 -11.0382 -5.45902
11.0491 -11.0492 -5.45814
12.1211 -11.132 -5.46244
-12.1368 -8.73504 -5.46478
-11.0382 -8.71095 -5.45902
-8.70711 -8.70709 -5.45977
-5.46116 -8.7063 -5.46113
-1.86346 -8.70633 -5.4619
1.86345 -8.70632 -5.46191
5.46117 -8.70632 -5.46111
8.70709 -8.70707 -5.45979
11.0382 -8.71097 -5.45904
12.1368 -8.73505 -5.46481
-12.1578 -5.46699 -5.46704
-11.0368 -5.46055 -5.46056
-8.7063 -5.46114 -5.46116
-5.46254 -5.46254 -5.46256
-1.86423 -5.46333 -5.4633
1.86431 -5.46331 -5.46329
5.46262 -5.46257 -5.46261
8.70637 -5.46111 -5.4611
11.0369 -5.46056 -5.46059
12.1578 -5.467 -5.46702
-12.1681 -1.8641 -5.46808
-11.0376 -1.86283 -5.46132
-8.70633 -1.86346 -5.46192
-5.46332 -1.86426 -5.46333
-1.86472 -1.86473 -5.46403
1.8647 -1.86471 -5.46406
5.4633 -1.86425 -5.46328
8.70635 -1.86344 -5.46195
11.0376 -1.86283 -5.46131
12.1681 -1.86408 -5.46808
-12.1681 1.86413 -5.46804
-11.0376 1.8628 -5.46129
-8.70634 1.86345 -5.46191
-5.46332 1.86429 -5.46327
-1.86474 1.86471 -5.46398
1.86469 1.86469 -5.46397
5.46329 1.86428 -5.46334
8.70633 1.86345 -5.4619
11.0376 1.8628 -5.46129
12.1681 1.86409 -5.46806
-12.1578 5.46699 -5.46702
-11.0369 5.46051 -5.46062
-8.70632 5.46118 -5.46114
-5.46253 5.46262 -5.46258
-1.86427 5.46328 -5.46336
1.86435 5.4633 -5.46335
5.46264 5.46259 -5.46254
8.70638 5.46119 -5.46115
11.0369 5.46056 -5.46061
12.1579 5.467 -5.46703
-12.1368 8.73506 -5.46478
-11.0382 8.71094 -5.45904
-8.70712 8.70708 -5.45981
-5.46118 8.70637 -5.46119
-1.86347 8.70636 -5.46191
1.86346 8.70637 -5.46189
5.46117 8.70635 -5.46122
8.70703 8.70709 -5.45976
11.0382 8.71089 -5.45906
12.1368 8.73507 -5.46479
-12.1211 11.1321 -5.46247
-11.0492 11.0492 -5.45814
-8.71096 11.0382 -5.45903
-5.46055 11.0369 -5.46061
-1.86283 11.0376 -5.46129
1.86281 11.0376 -5.4613
5.46052 11.0369 -5.46058
8.71094 11.0382 -5.45909
11.0492 11.0492 -5.45813
12.1211 11.1321 -5.46246
-12.2397 12.2397 -5.46171
-11.1321 12.1211 -5.46246
-8.73506 12.1368 -5.46481
-5.467 12.1579 -5.46701
-1.8641 12.1681 -5.46808
1.86411 12.1681 -5.46808
5.46699 12.1578 -5.46703
8.73506 12.1368 -5.46479
11.1321 12.1211 -5.46247
12.2397 12.2397 -5.46171
-12.2497 -12.2497 -1.86136
-11.1335 -12.1319 -1.86201
-8.73574 -12.1474 -1.86307
-5.46806 -12.1681 -1.86414
-1.86461 -12.1782 -1.86463
1.86464 -12.1782 -1.86461
5.46801 -12.1681 -1.86417
8.73573 -12.1474 -1.86308
11.1334 -12.1319 -1.86204
12.2497 -12.2497 -1.86135
-12.1319 -11.1334 -1.86205
-11.0502 -11.0502 -1.86131
-8.71104 -11.0391 -1.86194
-5.46129 -11.0376 -1.86285
-1.86328 -11.0383 -1.86329
1.86331 -11.0383 -1.86328
5.46134 -11.0376 -1.86288
8.71108 -11.0391 -1.86198
11.0502 -11.0502 -1.8613
12.132 -11.1334 -1.86204
-12.1474 -8.73575 -1.86307
-11.0391 -8.71105 -1.86198
-8.7071 -8.70712 -1.86267
-5.46189 -8.70633 -1.86341
-1.86387 -8.70628 -1.8639
1.86386 -8.70631 -1.8639
5.4619 -8.70631 -1.86341
8.70705 -8.70712 -1.86269
11.0391 -8.71104 -1.86197
12.1473 -8.73575 -1.86305
-12.1681 -5.46808 -1.86414
-11.0376 -5.46131 -1.86282
-8.70633 -5.46191 -1.86344
-5.46332 -5.4633 -1.86431
-1.86473 -5.46402 -1.86472
1.8647 -5.46404 -1.86471
5.46329 -5.4633 -1.86434
8.70636 -5.46193 -1.8634
11.0377 -5.46129 -1.86283
12.1681 -5.46806 -1.86414
-12.1782 -1.86459 -1.8646
-11.0383 -1.86327 -1.86331
-8.70628 -1.86389 -1.86389
-5.464 -1.86472 -1.86475
-1.86514 -1.86514 -1.86518
1.86515 -1.86517 -1.86519
5.46399 -1.86471 -1.86468
8.70624 -1.86389 -1.86392
11.0382 -1.86327 -1.8633
12.1781 -1.86462 -1.86461
-12.1782 1.86459 -1.86461
-11.0382 1.86331 -1.86328
-8.70627 1.86387 -1.86388
-5.464 1.86472 -1.86472
-1.86513 1.86514 -1.86508
1.86514 1.86511 -1.86507
5.464 1.86472 -1.86473
8.70622 1.86386 -1.86389
11.0382 1.86332 -1.86329
12.1781 1.86462 -1.86461
-12.1681 5.46805 -1.86414
-11.0376 5.46133 -1.86289
-8.70632 5.46185 -1.86344
-5.46333 5.4633 -1.8643
-1.86472 5.46395 -1.86477
1.8647 5.46395 -1.86476
5.46327 5.46332 -1.86428
8.70637 5.46185 -1.86347
11.0376 5.46132 -1.86292
12.1681 5.46802 -1.86417
-12.1474 8.73568 -1.86312
-11.0391 8.71104 -1.862
-8.7071 8.70706 -1.86269
-5.46189 8.70636 -1.86346
-1.86386 8.70625 -1.86388
1.86387 8.70624 -1.86387
5.4619 8.70637 -1.86353
8.70706 8.70704 -1.86266
11.0391 8.71106 -1.86198
12.1473 8.73569 -1.86313
-12.1319 11.1335 -1.86203
-11.0502 11.0502 -1.86136
-8.71104 11.0391 -1.86201
-5.46129 11.0377 -1.86289
-1.86328 11.0382 -1.86333
1.86331 11.0382 -1.86331
5.46132 11.0377 -1.86288
8.71106 11.0391 -1.862
11.0502 11.0502 -1.86136
12.132 11.1335 -1.86203
-12.2497 12.2497 -1.86137
-11.1334 12.132 -1.86204
-8.73574 12.1473 -1.86315
-5.46805 12.1681 -1.86416
-1.86462 12.1781 -1.86464
1.86463 12.1781 -1.86463
5.46804 12.1681 -1.86416
8.73573 12.1473 -1.86312
11.1334 12.132 -1.86203
12.2497 12.2497 -1.86138
-12.2497 -12.2497 1.86129
-11.1334 -12.132 1.86195
-8.73574 -12.1473 1.86305
-5.46805 -12.1681 1.8641
-1.86462 -12.1782 1.86461
1.86462 -12.1781 1.86462
5.46801 -12.1681 1.86409
8.73572 -12.1473 1.86307
11.1335 -12.132 1.86198
12.2497 -12.2497 1.8613
-12.132 -11.1334 1.862
-11.0502 -11.0502 1.86129
-8.71106 -11.0391 1.86198
-5.4613 -11.0376 1.86277
-1.86329 -11.0383 1.86326
1.86331 -11.0382 1.86327
5.46134 -11.0377 1.8628
8.71107 -11.0391 1.86202
11.0502 -11.0502 1.86131
12.132 -11.1334 1.86196
-12.1474 -8.73575 1.86305
-11.0391 -8.71105 1.86201
-8.70711 -8.70712 1.86254
-5.46191 -8.70632 1.86348
-1.86387 -8.70628 1.86386
1.86389 -8.70621 1.86386
5.46188 -8.70634 1.8635
8.70708 -8.70709 1.86254
11.0391 -8.71106 1.86199
12.1474 -8.73575 1.86303
-12.1681 -5.46805 1.86405
-11.0376 -5.4613 1.86278
-8.70632 -5.46188 1.86345
-5.46332 -5.4633 1.86418
-1.86473 -5.464 1.86474
1.86472 -5.46396 1.86473
5.46326 -5.46334 1.86421
8.70635 -5.46187 1.86347
11.0376 -5.4613 1.86277
12.1681 -5.46805 1.86408
-12.1782 -1.86459 1.8646
-11.0383 -1.86329 1.86325
-8.70627 -1.86387 1.86384
-5.464 -1.86474 1.8647
-1.86513 -1.86515 1.86513
1.86514 -1.86505 1.86507
5.46399 -1.86475 1.86472
8.70626 -1.86388 1.86381
11.0382 -1.8633 1.86324
12.1782 -1.86459 1.8646
-12.1782 1.86462 1.86462
-11.0383 1.8633 1.86327
-8.70626 1.8639 1.86384
-5.46398 1.86469 1.86474
-1.86514 1.86515 1.86518
1.86516 1.8652 1.86521
5.46402 1.86466 1.86469
8.7063 1.86393 1.86389
11.0382 1.86329 1.86328
12.1782 1.86464 1.86462
-12.1681 5.46806 1.86405
-11.0376 5.46133 1.86277
-8.70632 5.4619 1.86347
-5.46332 5.46328 1.86425
-1.86473 5.46398 1.86468
1.8647 5.46406 1.86468
5.46328 5.46324 1.86432
8.70634 5.46193 1.86342
11.0376 5.46133 1.86276
12.1681 5.46806 1.86408
-12.1473 8.7357 1.86298
-11.0391 8.71104 1.86196
-8.7071 8.70708 1.86254
-5.46191 8.70635 1.86343
-1.86387 8.70623 1.86386
1.86389 8.70636 1.86387
5.46187 8.70627 1.86338
8.70705 8.70715 1.86258
11.0391 8.71103 1.862
12.1473 8.7357 1.863
-12.132 11.1335 1.86194
-11.0502 11.0502 1.86126
-8.71106 11.0391 1.86198
-5.4613 11.0376 1.86275
-1.86329 11.0382 1.86326
1.8633 11.0383 1.86326
5.46132 11.0375 1.86279
8.71104 11.0392 1.86192
11.0502 11.0502 1.86123
12.132 11.1335 1.86193
-12.2497 12.2497 1.86128
-11.1334 12.132 1.86196
-8.73575 12.1473 1.86301
-5.46804 12.1681 1.86409
-1.86463 12.1781 1.86462
1.86463 12.1782 1.86461
5.46803 12.168 1.86407
8.73571 12.1474 1.86299
11.1334 12.132 1.86193
12.2497 12.2497 1.8613
-12.2397 -12.2397 5.46162
-11.1321 -12.1211 5.46241
-8.73506 -12.1368 5.46473
-5.46699 -12.1578 5.46693
-1.8641 -12.1681 5.46804
1.86412 -12.1681 5.46803
5.46702 -12.1578 5.46693
8.73505 -12.1368 5.46475
11.1321 -12.1211 5.4624
12.2397 -12.2397 5.46163
-12.1211 -11.1321 5.46241
-11.0492 -11.0492 5.45803
-8.71096 -11.0382 5.45904
-5.46054 -11.0369 5.46049
-1.86283 -11.0376 5.46127
1.8628 -11.0376 5.46126
5.46051 -11.0369 5.46048
8.71093 -11.0382 5.45905
11.0492 -11.0492 5.45803
12.1211 -11.1321 5.46241
-12.1368 -8.73507 5.46476
-11.0382 -8.71097 5.45903
-8.70709 -8.7071 5.45967
-5.46115 -8.70632 5.46123
-1.86346 -8.70631 5.46185
1.86344 -8.70635 5.46184
5.46118 -8.70632 5.4612
8.70709 -8.70711 5.45964
11.0382 -8.71097 5.45906
12.1368 -8.73506 5.46476
-12.1578 -5.46701 5.46693
-11.0369 -5.46055 5.46055
-8.70632 -5.46115 5.46121
-5.46253 -5.46253 5.46244
-1.86429 -5.46331 5.46333
1.86432 -5.46332 5.46333
5.4626 -5.46253 5.46251
8.70637 -5.46115 5.46123
11.0369 -5.46054 5.4605
12.1579 -5.467 5.46694
-12.1681 -1.86411 5.46802
-11.0376 -1.86282 5.46121
-8.70631 -1.86346 5.46184
-5.46331 -1.86425 5.46334
-1.86472 -1.86472 5.46396
1.8647 -1.86476 5.46393
5.46331 -1.86425 5.46334
8.70634 -1.86345 5.46181
11.0376 -1.86283 5.46124
12.1681 -1.86412 5.46803
-12.1681 1.8641 5.46802
-11.0376 1.86279 5.46125
-8.70632 1.86344 5.46183
-5.46333 1.86429 5.46329
-1.86473 1.8647 5.46403
1.86469 1.86467 5.46404
5.46325 1.86432 5.46326
8.70632 1.86343 5.46182
11.0376 1.8628 5.4613
12.168 1.86408 5.46802
-12.1578 5.46698 5.46697
-11.0368 5.46052 5.46048
-8.7063 5.46114 5.46121
-5.46251 5.4626 5.46255
-1.86426 5.46332 5.46324
1.86434 5.46325 5.4633
5.46259 5.46264 5.46257
8.70639 5.46114 5.46119
11.0369 5.46054 5.46046
12.1579 5.46704 5.46695
-12.1368 8.73505 5.46475
-11.0383 8.71089 5.45902
-8.7071 8.70706 5.45965
-5.46116 8.70635 5.46118
-1.86346 8.70635 5.46183
1.86343 8.70631 5.46185
5.46119 8.70638 5.46112
8.70708 8.70703 5.45967
11.0382 8.71092 5.45903
12.1368 8.7351 5.46475
-12.1211 11.1321 5.46245
-11.0492 11.0492 5.45801
-8.71095 11.0382 5.45903
-5.46055 11.0369 5.46048
-1.86282 11.0376 5.46126
1.86283 11.0376 5.46125
5.46055 11.0369 5.4605
8.71092 11.0382 5.45903
11.0492 11.0492 5.45806
12.1211 11.1321 5.46245
-12.2397 12.2397 5.46163
-11.1321 12.1211 5.46243
-8.73506 12.1368 5.46473
-5.46699 12.1578 5.46694
-1.8641 12.1681 5.468
1.86413 12.168 5.468
5.46703 12.1579 5.46694
8.73511 12.1368 5.46474
11.1321 12.1211 5.46243
12.2398 12.2397 5.46162
-12.2184 -12.2183 8.74106
-11.1309 -12.0985 8.73376
-8.73392 -12.115 8.73384
-5.46478 -12.1368 8.735
-1.86303 -12.1473 8.7357
1.86308 -12.1473 8.73574