# vtk DataFile Version 3.0 
Lennard-Jones particle simulation 
ASCII 
DATASET UNSTRUCTURED_GRID 
POINTS 2 float 
1.01571 1.01571 1.01571
3.98429 3.98429 3.98429
CELLS 0 0
CELL_TYPES 0
POINT_DATA 2
SCALARS mass float 
LOOKUP_TABLE default 
1
1
VECTORS velocity float 
0.00377941 0.00377941 0.00377941
-0.00377941 -0.00377941 -0.00377941
