# vtk DataFile Version 3.0 
Lennard-Jones particle simulation 
ASCII 
DATASET UNSTRUCTURED_GRID 
POINTS 1000 float 
-10.8152 -10.8152 -10.8152
-8.70755 -10.7383 -10.7383
-5.51167 -10.7555 -10.7555
-1.6849 -10.7727 -10.7728
2.40586 -10.7807 -10.7807
6.59416 -10.7807 -10.7807
10.6849 -10.7727 -10.7728
14.5117 -10.7555 -10.7555
17.7076 -10.7383 -10.7383
19.8152 -10.8152 -10.8152
-10.7383 -8.70755 -10.7383
-8.67583 -8.67583 -10.6403
-5.50665 -8.67043 -10.6559
-1.68545 -8.67062 -10.674
2.40533 -8.67149 -10.6824
6.59462 -8.67148 -10.6824
10.6855 -8.67062 -10.674
14.5066 -8.67043 -10.6559
17.6758 -8.67582 -10.6403
19.7382 -8.70755 -10.7383
-10.7555 -5.51168 -10.7555
-8.67043 -5.50665 -10.6559
-5.50688 -5.50688 -10.6694
-1.68763 -5.50834 -10.6864
2.40441 -5.50916 -10.6946
6.59562 -5.50916 -10.6946
10.6876 -5.50834 -10.6864
14.5069 -5.50688 -10.6694
17.6704 -5.50664 -10.6559
19.7555 -5.51166 -10.7555
-10.7728 -1.6849 -10.7728
-8.67063 -1.68546 -10.674
-5.50834 -1.68762 -10.6865
-1.68979 -1.68978 -10.7028
2.40344 -1.69081 -10.7107
6.59656 -1.69081 -10.7107
10.6898 -1.68978 -10.7028
14.5083 -1.68763 -10.6864
17.6707 -1.68544 -10.674
19.7728 -1.68491 -10.7727
-10.7807 2.40589 -10.7807
-8.6715 2.40535 -10.6824
-5.50917 2.40442 -10.6946
-1.69083 2.40344 -10.7107
2.40297 2.40298 -10.7185
6.59703 2.40297 -10.7185
10.6908 2.40344 -10.7107
14.5091 2.40441 -10.6946
17.6715 2.40534 -10.6824
19.7806 2.40587 -10.7807
-10.7806 6.59412 -10.7806
-8.67148 6.59466 -10.6824
-5.50917 6.59561 -10.6946
-1.69082 6.59655 -10.7107
2.403 6.59701 -10.7184
6.59703 6.59702 -10.7184
10.6908 6.59655 -10.7107
14.5092 6.59561 -10.6946
17.6715 6.59466 -10.6824
19.7807 6.59414 -10.7807
-10.7728 10.685 -10.7728
-8.67064 10.6855 -10.674
-5.50836 10.6877 -10.6865
-1.68979 10.6898 -10.7028
2.40343 10.6908 -10.7107
6.59653 10.6908 -10.7107
10.6898 10.6898 -10.7028
14.5083 10.6876 -10.6865
17.6706 10.6854 -10.674
19.7727 10.6849 -10.7728
-10.7555 14.5117 -10.7555
-8.67043 14.5066 -10.6559
-5.50689 14.5069 -10.6694
-1.68763 14.5083 -10.6865
2.40442 14.5092 -10.6946
6.59562 14.5092 -10.6946
10.6876 14.5083 -10.6865
14.5069 14.5069 -10.6694
17.6704 14.5067 -10.6559
19.7555 14.5117 -10.7555
-10.7383 17.7076 -10.7383
-8.67583 17.6758 -10.6403
-5.50666 17.6704 -10.6559
-1.68545 17.6706 -10.674
2.40536 17.6715 -10.6824
6.59463 17.6715 -10.6824
10.6855 17.6706 -10.674
14.5066 17.6704 -10.6559
17.6758 17.6758 -10.6403
19.7383 17.7076 -10.7383
-10.8152 19.8152 -10.8152
-8.70756 19.7383 -10.7383
-5.51168 19.7555 -10.7555
-1.68491 19.7727 -10.7728
2.40586 19.7807 -10.7807
6.59415 19.7807 -10.7807
10.6849 19.7727 -10.7728
14.5117 19.7555 -10.7555
17.7076 19.7383 -10.7383
19.8152 19.8152 -10.8152
-10.7383 -10.7383 -8.70756
-8.67583 -10.6403 -8.67582
-5.50666 -10.6559 -8.67044
-1.68545 -10.674 -8.67064
2.40534 -10.6824 -8.6715
6.59462 -10.6824 -8.67149
10.6855 -10.674 -8.67064
14.5066 -10.6559 -8.67043
17.6758 -10.6403 -8.67584
19.7382 -10.7383 -8.70756
-10.6403 -8.67583 -8.67583
-8.6232 -8.6232 -8.6232
-5.49278 -8.61275 -8.61274
-1.68204 -8.61131 -8.61132
2.40592 -8.61174 -8.61173
6.59409 -8.61174 -8.61173
10.682 -8.61131 -8.61132
14.4928 -8.61275 -8.61274
17.6232 -8.6232 -8.62321
19.6403 -8.67583 -8.67584
-10.6559 -5.50664 -8.67043
-8.61276 -5.49278 -8.61274
-5.49029 -5.49028 -8.60177
-1.68301 -5.49046 -8.60011
2.40529 -5.49084 -8.60055
6.5947 -5.49083 -8.60055
10.683 -5.49047 -8.6001
14.4903 -5.49028 -8.60179
17.6127 -5.49279 -8.61276
19.6559 -5.50666 -8.67044
-10.674 -1.68545 -8.67064
-8.61129 -1.68201 -8.61131
-5.49048 -1.683 -8.60014
-1.68462 -1.68462 -8.59831
2.40452 -1.68541 -8.59866
6.59549 -1.68541 -8.59866
10.6846 -1.68462 -8.59835
14.4905 -1.683 -8.6001
17.6113 -1.68203 -8.61131
19.674 -1.68545 -8.67062
-10.6824 2.40534 -8.6715
-8.61173 2.40593 -8.61175
-5.49083 2.4053 -8.60055
-1.68541 2.40448 -8.59869
2.40409 2.40408 -8.59891
6.59593 2.4041 -8.59892
10.6855 2.40447 -8.59865
14.4908 2.40532 -8.60058
17.6118 2.40593 -8.61174
19.6824 2.40535 -8.67149
-10.6824 6.59465 -8.67148
-8.61177 6.59407 -8.61173
-5.49086 6.59469 -8.60056
-1.68542 6.59552 -8.59862
2.40406 6.59594 -8.59889
6.59593 6.59593 -8.59888
10.6854 6.59551 -8.59867
14.4908 6.59467 -8.60053
17.6117 6.59406 -8.61174
19.6824 6.59464 -8.67149
-10.674 10.6855 -8.67065
-8.6113 10.682 -8.61134
-5.49048 10.683 -8.60012
-1.68462 10.6846 -8.59835
2.40451 10.6854 -8.59868
6.5955 10.6855 -8.59869
10.6846 10.6846 -8.59831
14.4905 10.683 -8.60015
17.6113 10.682 -8.61133
19.674 10.6855 -8.67065
-10.6559 14.5066 -8.67045
-8.61276 14.4928 -8.61275
-5.49029 14.4903 -8.60179
-1.683 14.4905 -8.60014
2.40529 14.4908 -8.60054
6.59468 14.4909 -8.60055
10.683 14.4905 -8.60016
14.4903 14.4903 -8.60177
17.6127 14.4928 -8.61277
19.6559 14.5066 -8.67044
-10.6403 17.6758 -8.67585
-8.62321 17.6232 -8.62322
-5.49279 17.6127 -8.61275
-1.68204 17.6113 -8.61134
2.40592 17.6117 -8.61175
6.59409 17.6118 -8.61175
10.682 17.6113 -8.61132
14.4928 17.6127 -8.61277
17.6232 17.6232 -8.62321
19.6403 17.6758 -8.67585
-10.7383 19.7383 -8.70756
-8.67584 19.6403 -8.67584
-5.50666 19.6559 -8.67045
-1.68545 19.674 -8.67064
2.40533 19.6824 -8.6715
6.59461 19.6824 -8.6715
10.6855 19.674 -8.67064
14.5066 19.6559 -8.67045
17.6758 19.6403 -8.67584
19.7383 19.7383 -8.70756
-10.7555 -10.7555 -5.51169
-8.67045 -10.6559 -5.50666
-5.5069 -10.6694 -5.50687
-1.68765 -10.6865 -5.50835
2.4044 -10.6946 -5.50916
6.59562 -10.6946 -5.50917
10.6877 -10.6864 -5.50835
14.5069 -10.6694 -5.50687
17.6705 -10.6559 -5.50666
19.7555 -10.7555 -5.51169
-10.6559 -8.67045 -5.50665
-8.61277 -8.61277 -5.49279
-5.4903 -8.60176 -5.49028
-1.68301 -8.60015 -5.49049
2.40529 -8.60055 -5.49083
6.5947 -8.60055 -5.49083
10.683 -8.60013 -5.49048
14.4903 -8.60179 -5.49028
17.6128 -8.61276 -5.49279
19.6559 -8.67044 -5.50666
-10.6694 -5.50689 -5.50688
-8.60176 -5.49029 -5.49028
-5.48743 -5.48742 -5.48744
-1.68382 -5.48748 -5.48744
2.40473 -5.4878 -5.4878
6.59526 -5.4878 -5.4878
10.6838 -5.48747 -5.48744
14.4874 -5.48745 -5.48746
17.6018 -5.49028 -5.49029
19.6694 -5.5069 -5.50689
-10.6865 -1.68764 -5.50834
-8.60015 -1.68301 -5.49046
-5.48749 -1.68382 -5.48746
-1.68535 -1.68534 -5.48746
2.40393 -1.68614 -5.48778
6.59604 -1.68615 -5.48777
10.6853 -1.68532 -5.48751
14.4874 -1.68385 -5.48743
17.6001 -1.68301 -5.49048
19.6864 -1.68764 -5.50834
-10.6946 2.40439 -5.50918
-8.60057 2.4053 -5.49084
-5.4878 2.40469 -5.4878
-1.68615 2.40393 -5.48781
2.40352 2.40354 -5.48805
6.59645 2.40352 -5.48808
10.6861 2.40394 -5.48777
14.4878 2.40468 -5.48781
17.6005 2.40529 -5.49085
19.6946 2.4044 -5.50918
-10.6946 6.5956 -5.50917
-8.60058 6.59467 -5.49083
-5.4878 6.59527 -5.48781
-1.68613 6.59604 -5.48775
2.40354 6.59647 -5.48802
6.59647 6.59646 -5.48799
10.6862 6.59608 -5.48779
14.4878 6.59523 -5.4878
17.6006 6.59469 -5.49082
19.6946 6.59559 -5.50917
-10.6864 10.6876 -5.50837
-8.6001 10.683 -5.49049
-5.48746 10.6838 -5.48746
-1.68534 10.6853 -5.48749
2.40392 10.6861 -5.4878
6.59605 10.6861 -5.4878
10.6853 10.6854 -5.48745
14.4874 10.6838 -5.48748
17.6001 10.683 -5.49049
19.6864 10.6876 -5.50837
-10.6694 14.5069 -5.5069
-8.60174 14.4903 -5.49028
-5.4874 14.4874 -5.48744
-1.68379 14.4874 -5.48748
2.40473 14.4878 -5.4878
6.59527 14.4878 -5.48778
10.6838 14.4875 -5.4875
14.4874 14.4874 -5.48742
17.6018 14.4903 -5.4903
19.6694 14.5069 -5.50689
-10.6559 17.6704 -5.50667
-8.61274 17.6128 -5.49281
-5.49027 17.6018 -5.49028
-1.68299 17.6001 -5.49049
2.4053 17.6005 -5.49085
6.59467 17.6005 -5.49085
10.683 17.6001 -5.49048
14.4903 17.6017 -5.49031
17.6127 17.6128 -5.4928
19.6559 17.6704 -5.50667
-10.7555 19.7555 -5.5117
-8.67041 19.6559 -5.50667
-5.50687 19.6694 -5.5069
-1.68762 19.6864 -5.50836
2.40441 19.6946 -5.50918
6.59562 19.6946 -5.50918
10.6876 19.6864 -5.50836
14.5069 19.6694 -5.5069
17.6704 19.6559 -5.50667
19.7555 19.7555 -5.5117
-10.7727 -10.7727 -1.68494
-8.67059 -10.6739 -1.68546
-5.50832 -10.6864 -1.68764
-1.68977 -10.7028 -1.6898
2.40346 -10.7107 -1.69082
6.59655 -10.7107 -1.69082
10.6898 -10.7028 -1.68981
14.5083 -10.6864 -1.68763
17.6706 -10.6739 -1.68547
19.7727 -10.7727 -1.68494
-10.6739 -8.67059 -1.68547
-8.61127 -8.61127 -1.68203
-5.49045 -8.60011 -1.68305
-1.68461 -8.59831 -1.68465
2.40452 -8.59866 -1.68541
6.59548 -8.59866 -1.68542
10.6846 -8.59832 -1.68464
14.4904 -8.60009 -1.683
17.6112 -8.61129 -1.68204
19.6739 -8.6706 -1.68545
-10.6864 -5.50831 -1.68763
-8.60012 -5.49045 -1.68301
-5.48747 -5.48746 -1.68384
-1.68534 -5.48744 -1.68531
2.40393 -5.48778 -1.68613
6.59606 -5.48777 -1.68614
10.6853 -5.48745 -1.68529
14.4875 -5.48744 -1.68386
17.6001 -5.49046 -1.68302
19.6865 -5.50832 -1.68765
-10.7028 -1.68977 -1.68981
-8.5983 -1.68461 -1.68462
-5.48744 -1.68532 -1.68533
-1.68682 -1.68682 -1.68684
2.4032 -1.68766 -1.68763
6.59686 -1.68764 -1.68763
10.6869 -1.68684 -1.68688
14.4875 -1.6853 -1.68529
17.5983 -1.68462 -1.68464
19.7028 -1.68977 -1.6898
-10.7107 2.40346 -1.69084
-8.59866 2.40451 -1.68544
-5.48778 2.40394 -1.68615
-1.68765 2.40318 -1.68766
2.40274 2.40273 -1.68842
6.59724 2.40275 -1.68844
10.6876 2.40318 -1.68762
14.4878 2.40395 -1.68617
17.5987 2.40451 -1.68543
19.7107 2.40348 -1.69083
-10.7107 6.59657 -1.69081
-8.59866 6.59547 -1.68541
-5.48779 6.59606 -1.68614
-1.68765 6.59684 -1.68761
2.40273 6.59725 -1.68838
6.59723 6.59723 -1.68837
10.6876 6.59684 -1.68766
14.4878 6.59606 -1.68613
17.5987 6.59547 -1.68541
19.7107 6.59654 -1.69083
-10.7028 10.6898 -1.6898
-8.59831 10.6846 -1.68467
-5.48745 10.6854 -1.68532
-1.68681 10.6869 -1.68686
2.40317 10.6876 -1.68768
6.5969 10.6876 -1.68768
10.6869 10.6869 -1.68683
14.4875 10.6854 -1.68533
17.5984 10.6846 -1.68466
19.7028 10.6898 -1.68981
-10.6865 14.5083 -1.68764
-8.60013 14.4904 -1.68301
-5.48748 14.4874 -1.68388
-1.68535 14.4875 -1.68536
2.40392 14.4878 -1.68614
6.59606 14.4878 -1.68612
10.6853 14.4875 -1.68538
14.4874 14.4875 -1.68383
17.6001 14.4904 -1.68304
19.6864 14.5083 -1.68764
-10.6739 17.6706 -1.68547
-8.61128 17.6113 -1.68204
-5.49046 17.6001 -1.68301
-1.68461 17.5984 -1.68466
2.40451 17.5987 -1.68541
6.59547 17.5987 -1.68542
[...]
POINT_DATA 1000
SCALARS mass float 
LOOKUP_TABLE default 
1
1
1
1
1
1
1
1
1
1
1
1
1
1
1
1
1
1
1
1
1
1
1
1
1
1
1
1
1
1
1
1
1
1
1
1
1
1
1
1
1
1
1
1
1
1
1
1
1
1
1
1
1
1
1
1
1
1
1
1
1
1
1
1
1
1
1
1
1
1
1
1
1
1
1
1
1
1
1
1
1
1
1
1
1
1
1
1
1
1
1
1
1
1
1
1
1
1
1
1
1
1
1
1
1
1
1
1
1
1
1
1
1
1
1
1
1
1
1
1
1
1
1
1
1
1
1
1
1
1
1
1
1
1
1
1
1
1
1
1
1
1
1
1
1
1
1
1
1
1
1
1
1
1
1
1
1
1
1
1
1
1
1
1
1
1
1
1
1
1
1
1
1
1
1
1
1
1
1
1
1
1
1
1
1
1
1
1
1
1
1
1
1
1
1
1
1
1
1
1
1
1
1
1
1
1
1
1
1
1
1
1
1
1
1
1
1
1
1
1
1
1
1
1
1
1
1
1
1
1
1
1
1
1
1
1
1
1
1
1
1
1
1
1
1
1
1
1
1
1
1
1
1
1
1
1
1
1
1
1
1
1
1
1
1
1
1
1
1
1
1
1
1
1
1
1
1
1
1
1
1
1
1
1
1
1
1
1
1
1
1
1
1
1
1
1
1
1
1
1
1
1
1
1
1
1
1
1
1
1
1
1
1
1
1
1
1
1
1
1
1
1
1
1
1
1
1
1
1
1
1
1
1
1
1
1
1
1
1
1
1
1
1
1
1
1
1
1
1
1
1
1
1
1
1
1
1
1
1
1
1
1
1
1
1
1
1
1
1
1
1
1
1
1
1
1
1
1
1
1
1
1
1
1
1
1
1
1
1
1
1
1
1
1
1
1
1
1
1
1
1
1
1
1
1
1
1
1
1
1
1
1
1
1
1
1
1
1
1
1
1
1
1
1
1
1
1
1
1
1
1
1
1
1
1
1
1
1
1
1
1
1
1
1
1
1
1
1
1
1
1
1
1
1
1
1
1
1
1
1
1
1
1
1
1
1
1
1
1
1
1
1
1
1
1
1
1
1
1
1
1
1
1
1
1
1
1
1
1
1
1
1
1
1
1
1
1
1
1
1
1
1
1
1
1
1
1
1
1
1
1
1
1
1
1
1
1
1
1
1
1
1
1
1
1
1
1
1
1
1
1
1
1
1
1
1
1
1
1
1
1
1
1
1
1
1
1
1
1
1
1
1
1
1
1
1
1
1
1
1
1
1
1
1
1
1
1
1
1
1
1
1
1
1
1
1
1
1
1
1
1
1
1
1
1
1
1
1
1
1
1
1
1
1
1
1
1
1
1
1
1
1
1
1
1
1
1
1
1
1
1
1
1
1
1
1
1
1
1
1
1
1
1
1
1
1
1
1
1
1
1
1
1
1
1
1
1
1
1
1
1
1
1
1
1
1
1
1
1
1
1
1
1
1
1
1
1
1
1
1
1
1
1
1
1
1
1
1
1
1
1
1
1
1
1
1
1
1
1
1
1
1
1
1
1
1
1
1
1
1
1
1
1
1
1
1
1
1
1
1
1
1
1
1
1
1
1
1
1
1
1
1
1
1
1
1
1
1
1
1
1
1
1
1
1
1
1
1
1
1
1
1
1
1
1
1
1
1
1
1
1
1
1
1
1
1
1
1
1
1
1
1
1
1
1
1
1
1
1
1
1
1
1
1
1
1
1
1
1
1
1
1
1
1
1
1
1
1
1
1
1
1
1
1
1
1
1
1
1
1
1
1
1
1
1
1
1
1
1
1
1
1
1
1
1
1
1
1
1
1
1
1
1
1
1
1
1
1
1
1
1
1
1
1
1
1
1
1
1
1
1
1
1
1
1
1
1
1
1
1
1
1
1
1
1
1
1
1
1
1
1
1
1
1
1
1
1
1
1
1
1
1
1
1
1
1
1
1
1
1
1
1
1
1
1
1
1
1
1
1
1
1
1
1
1
1
1
1
1
1
1
1
1
1
1
1
1
1
1
1
1
1
1
1
1
1
1
1
1
1
1
1
1
1
1
1
1
1
1
1
1
1
1
1
1
1
1
1
1
1
1
1
1
1
1
1
1
1
1
1
1
1
1
1
1
1
1
1
1
1
1
1
1
1
1
1
1
1
1
1
1
1
1
1
1
1
1
1
1
1
1
1
1
1
1
1
1
1
1
1
1
1
1
1
1
1
1
1
1
1
1
1
1
1
1
1
1
1
1
1
VECTORS velocity float 
-12.0315 -12.0315 -12.0315
-11.3663 -11.9181 -11.9182
-8.77986 -11.9592 -11.9593
-5.47042 -11.9917 -11.9917
-1.86368 -12.0054 -12.0054
1.86369 -12.0054 -12.0054
5.47047 -11.9917 -11.9917
8.77985 -11.9592 -11.9592
11.3663 -11.9181 -11.9182
12.0315 -12.0315 -12.0315
-11.9181 -11.3663 -11.9182
-11.3357 -11.3357 -11.782
-8.77732 -11.3139 -11.8237
-5.47195 -11.3078 -11.8591
-1.86451 -11.3066 -11.8741
1.86446 -11.3066 -11.8741
5.47196 -11.3078 -11.8591
8.77731 -11.3139 -11.8237
11.3357 -11.3357 -11.782
11.9181 -11.3663 -11.9181
-11.9592 -8.77987 -11.9592
-11.3139 -8.77732 -11.8237
-8.7731 -8.77309 -11.8604
-5.47319 -8.77278 -11.8934
-1.86523 -8.77302 -11.9077
1.86527 -8.77302 -11.9077
5.47321 -8.77278 -11.8933
8.77308 -8.77308 -11.8604
11.3139 -8.7773 -11.8237
11.9593 -8.77984 -11.9593
-11.9917 -5.47042 -11.9917
-11.3078 -5.47196 -11.8591
-8.77279 -5.47317 -11.8934
-5.47501 -5.47501 -11.9249
-1.8662 -5.47594 -11.9387
1.8662 -5.47594 -11.9387
5.47502 -5.47501 -11.9249
8.77278 -5.47318 -11.8934
11.3079 -5.47194 -11.859
11.9917 -5.47043 -11.9917
-12.0054 -1.86364 -12.0054
-11.3067 -1.86449 -11.8741
-8.77303 -1.86523 -11.9077
-5.47596 -1.8662 -11.9387
-1.86667 -1.86666 -11.9522
1.86668 -1.86667 -11.9522
5.4759 -1.86619 -11.9387
8.77299 -1.86523 -11.9077
11.3066 -1.8645 -11.8741
12.0053 -1.86366 -12.0054
-12.0053 1.86365 -12.0053
-11.3066 1.8645 -11.8741
-8.77303 1.86526 -11.9077
-5.47595 1.86619 -11.9386
-1.86664 1.86665 -11.9522
1.86667 1.86666 -11.9522
5.47596 1.86619 -11.9387
8.77305 1.86526 -11.9077
11.3067 1.8645 -11.8741
12.0054 1.86367 -12.0053
-11.9917 5.47049 -11.9917
-11.3079 5.47197 -11.8591
-8.77281 5.47325 -11.8934
-5.47502 5.47498 -11.9249
-1.8662 5.47593 -11.9387
1.86616 5.47592 -11.9387
5.47499 5.47499 -11.9249
8.77279 5.47318 -11.8934
11.3079 5.47194 -11.8591
11.9916 5.47045 -11.9917
-11.9592 8.77984 -11.9593
-11.3139 8.77729 -11.8237
-8.7731 8.77309 -11.8604
-5.47319 8.7728 -11.8934
-1.86523 8.77304 -11.9077
1.86527 8.77304 -11.9077
5.4732 8.7728 -11.8934
8.77308 8.77309 -11.8604
11.3139 8.77734 -11.8237
11.9593 8.77986 -11.9593
-11.9181 11.3663 -11.9182
-11.3357 11.3357 -11.7821
-8.77732 11.3139 -11.8237
-5.47195 11.3079 -11.8591
-1.86448 11.3067 -11.8741
1.86447 11.3067 -11.8741
5.47197 11.3079 -11.8591
8.7773 11.3139 -11.8237
11.3357 11.3357 -11.7821
11.9182 11.3663 -11.9182
-12.0315 12.0315 -12.0315
-11.3663 11.9182 -11.9182
-8.77986 11.9593 -11.9593
-5.47043 11.9916 -11.9917
-1.86367 12.0054 -12.0054
1.86368 12.0053 -12.0054
5.47045 11.9916 -11.9917
8.77986 11.9592 -11.9593
11.3663 11.9181 -11.9182
12.0315 12.0315 -12.0315
-11.9181 -11.9182 -11.3663
-11.3357 -11.782 -11.3357
-8.77733 -11.8237 -11.3139
-5.47194 -11.859 -11.3079
-1.8645 -11.8741 -11.3067
1.86445 -11.8741 -11.3066
5.47198 -11.8591 -11.3078
8.7773 -11.8237 -11.3139
11.3357 -11.782 -11.3357
11.9181 -11.9181 -11.3663
-11.782 -11.3357 -11.3357
-11.2796 -11.2796 -11.2796
-8.76625 -11.2491 -11.2491
-5.46973 -11.2402 -11.2402
-1.86428 -11.2382 -11.2382
1.8643 -11.2382 -11.2382
5.46968 -11.2402 -11.2402
8.7663 -11.2491 -11.2491
11.2796 -11.2796 -11.2796
11.782 -11.3357 -11.3357
-11.8237 -8.77731 -11.3139
-11.2491 -8.76625 -11.2491
-8.75799 -8.75797 -11.2196
-5.46927 -8.75585 -11.2113
-1.86462 -8.75545 -11.2096
1.8646 -8.75544 -11.2096
5.46928 -8.75586 -11.2113
8.75799 -8.75797 -11.2197
11.2491 -8.76626 -11.2491
11.8237 -8.77733 -11.3139
-11.859 -5.47195 -11.3079
-11.2402 -5.4697 -11.2402
-8.75587 -5.46926 -11.2113
-5.47036 -5.47036 -11.2031
-1.86531 -5.47097 -11.2014
1.86533 -5.47097 -11.2014
5.47038 -5.47036 -11.2031
8.75587 -5.46926 -11.2113
11.2402 -5.46972 -11.2402
11.8591 -5.47195 -11.3078
-11.8741 -1.86449 -11.3067
-11.2382 -1.86428 -11.2382
-8.75544 -1.8646 -11.2096
-5.47098 -1.86536 -11.2014
-1.86574 -1.86575 -11.1996
1.86576 -1.86572 -11.1996
5.47103 -1.86537 -11.2014
8.75546 -1.86458 -11.2097
11.2382 -1.86427 -11.2382
11.8741 -1.86449 -11.3066
-11.8741 1.86449 -11.3066
-11.2382 1.86427 -11.2382
-8.75548 1.86459 -11.2096
-5.47099 1.86535 -11.2013
-1.86577 1.86577 -11.1996
1.86576 1.86575 -11.1996
5.47102 1.86535 -11.2014
8.75546 1.86457 -11.2096
11.2382 1.86426 -11.2382
11.8741 1.86448 -11.3066
-11.859 5.47197 -11.3079
-11.2402 5.46973 -11.2402
-8.75587 5.46925 -11.2113
-5.47036 5.47035 -11.2031
-1.86532 5.47102 -11.2014
1.86533 5.47103 -11.2014
5.47038 5.47036 -11.2031
8.75589 5.46927 -11.2113
11.2402 5.46972 -11.2402
11.8591 5.47198 -11.3079
-11.8237 8.77731 -11.314
-11.2491 8.76629 -11.2491
-8.75798 8.75802 -11.2197
-5.46926 8.7559 -11.2113
-1.86462 8.75546 -11.2096
1.86458 8.75547 -11.2096
5.46926 8.75589 -11.2114
8.75802 8.75803 -11.2196
11.249 8.76628 -11.2491
11.8237 8.7773 -11.3139
-11.782 11.3357 -11.3357
-11.2796 11.2796 -11.2796
-8.76626 11.2491 -11.2491
-5.46974 11.2402 -11.2402
-1.86428 11.2382 -11.2382
1.8643 11.2382 -11.2382
5.46969 11.2402 -11.2402
8.7663 11.2491 -11.2491
11.2796 11.2796 -11.2796
11.782 11.3357 -11.3357
-11.9182 11.9182 -11.3663
-11.3357 11.782 -11.3357
-8.77734 11.8237 -11.314
-5.47196 11.8591 -11.3079
-1.86451 11.8741 -11.3067
1.86445 11.8741 -11.3067
5.47198 11.8591 -11.3079
8.77731 11.8237 -11.314
11.3357 11.782 -11.3357
11.9181 11.9182 -11.3663
-11.9593 -11.9593 -8.77988
-11.3139 -11.8237 -8.77733
-8.77311 -11.8604 -8.77308
-5.4732 -11.8934 -8.7728
-1.86525 -11.9077 -8.77302
1.86528 -11.9077 -8.77302
5.47322 -11.8934 -8.7728
8.7731 -11.8604 -8.77307
11.314 -11.8237 -8.77733
11.9593 -11.9593 -8.77988
-11.8237 -11.314 -8.77732
-11.2491 -11.2491 -8.76625
-8.75799 -11.2196 -8.75798
-5.46928 -11.2113 -8.75588
-1.86462 -11.2096 -8.75544
1.8646 -11.2096 -8.75544
5.46928 -11.2113 -8.75587
8.75803 -11.2197 -8.75798
11.2491 -11.2491 -8.76627
11.8238 -11.3139 -8.77734
-11.8604 -8.7731 -8.77309
-11.2196 -8.75799 -8.75798
-8.74961 -8.74961 -8.74963
-5.46867 -8.74751 -8.74747
-1.86488 -8.7471 -8.74711
1.86486 -8.74711 -8.7471
5.46866 -8.7475 -8.74746
8.74961 -8.74964 -8.74966
11.2196 -8.75798 -8.75799
11.8604 -8.77311 -8.7731
-11.8934 -5.4732 -8.77278
-11.2114 -5.46928 -8.75585
-8.74752 -5.46867 -8.74748
-5.46971 -5.46969 -8.74542
-1.86561 -5.47033 -8.74503
1.86558 -5.47034 -8.74502
5.46971 -5.46967 -8.74548
8.74744 -5.46871 -8.74745
11.2113 -5.46928 -8.75586
11.8934 -5.4732 -8.77278
-11.9077 -1.86526 -8.77304
-11.2096 -1.8646 -8.75546
-8.74711 -1.86492 -8.74711
-5.47035 -1.86561 -8.74507
-1.86602 -1.86599 -8.74461
1.86598 -1.86602 -8.74465
5.4703 -1.8656 -8.74502
8.74706 -1.86493 -8.74712
11.2096 -1.86461 -8.75546
11.9077 -1.86524 -8.77304
-11.9077 1.86525 -8.77303
-11.2097 1.86457 -8.75544
-8.7471 1.86487 -8.74712
-5.47033 1.86557 -8.74499
-1.86599 1.866 -8.74456
1.866 1.86599 -8.74454
5.47036 1.86563 -8.74504
8.7471 1.86482 -8.74711
11.2096 1.86459 -8.75543
11.9077 1.86524 -8.77303
-11.8934 5.47317 -8.77282
-11.2113 5.46927 -8.75588
-8.74748 5.46864 -8.74749
-5.4697 5.46968 -8.74544
-1.86563 5.47034 -8.74505
1.86559 5.47032 -8.74506
5.46969 5.46971 -8.7454
8.74739 5.46864 -8.74751
11.2113 5.46926 -8.75588
11.8933 5.47317 -8.77283
-11.8604 8.77309 -8.77311
-11.2196 8.75803 -8.75798
-8.74959 8.74959 -8.74964
-5.46863 8.74745 -8.74751
-1.86487 8.74708 -8.7471
1.86487 8.74708 -8.74708
5.46867 8.74748 -8.74753
8.74959 8.74959 -8.7496
11.2196 8.75802 -8.758
11.8604 8.77309 -8.77311
-11.8237 11.3139 -8.77735
-11.2491 11.2491 -8.76628
-8.75796 11.2196 -8.75798
-5.46924 11.2113 -8.75588
-1.8646 11.2096 -8.75546
1.86457 11.2096 -8.75546
5.46928 11.2113 -8.75587
8.75803 11.2196 -8.75801
11.2491 11.2491 -8.76628
11.8237 11.3139 -8.77735
-11.9592 11.9592 -8.77989
-11.3139 11.8237 -8.77734
-8.77308 11.8604 -8.77311
-5.47317 11.8933 -8.77281
-1.86524 11.9077 -8.77304
1.86527 11.9077 -8.77304
5.4732 11.8934 -8.7728
8.7731 11.8604 -8.77312
11.3139 11.8237 -8.77735
11.9592 11.9592 -8.7799
-11.9916 -11.9916 -5.47047
-11.3078 -11.859 -5.47196
-8.77276 -11.8934 -5.47319
-5.47499 -11.9249 -5.47503
-1.86617 -11.9387 -5.47595
1.86618 -11.9387 -5.47595
5.47499 -11.9249 -5.47504
8.77276 -11.8933 -5.47318
11.3078 -11.859 -5.47197
11.9916 -11.9916 -5.47046
-11.859 -11.3078 -5.47197
-11.2401 -11.2401 -5.46973
-8.75583 -11.2113 -5.46932
-5.47035 -11.2031 -5.4704
-1.86531 -11.2014 -5.47098
1.86531 -11.2014 -5.47098
5.47031 -11.2031 -5.47039
8.75581 -11.2113 -5.46926
11.2401 -11.2402 -5.46973
11.859 -11.3078 -5.47195
-11.8934 -8.77275 -5.47318
-11.2113 -8.75583 -5.46926
-8.7475 -8.74748 -5.4687
-5.46969 -8.74539 -5.46966
-1.86561 -8.74503 -5.47033
1.8656 -8.74501 -5.47033
5.4697 -8.7454 -5.46964
8.74748 -8.74746 -5.46871
11.2113 -8.75586 -5.46928
11.8934 -8.77276 -5.47321
-11.9249 -5.47499 -5.47504
-11.2031 -5.47035 -5.47037
-8.74539 -5.46967 -5.46969
-5.47071 -5.47071 -5.47073
-1.86628 -5.4714 -5.47136
1.86636 -5.47138 -5.47136
5.47079 -5.47074 -5.47078
8.74545 -5.46965 -5.46963
11.2031 -5.47036 -5.47039
11.9249 -5.475 -5.47503
-11.9387 -1.86618 -5.47597
-11.2014 -1.86533 -5.47101
-8.74503 -1.86561 -5.47035
-5.47139 -1.86631 -5.4714
-1.86675 -1.86676 -5.472
1.86673 -1.86674 -5.47203
5.47137 -1.8663 -5.47135
8.74504 -1.8656 -5.47037
11.2014 -1.86532 -5.47099
11.9387 -1.86615 -5.47596
-11.9387 1.8662 -5.47593
-11.2014 1.8653 -5.47097
-8.74504 1.86561 -5.47033
-5.47139 1.86634 -5.47134
-1.86677 1.86674 -5.47196
1.86672 1.86671 -5.47194
5.47136 1.86633 -5.47141
8.74503 1.8656 -5.47032
11.2014 1.8653 -5.47098
11.9387 1.86616 -5.47595
-11.9249 5.47499 -5.47503
-11.2031 5.47031 -5.47042
-8.7454 5.46972 -5.46967
-5.4707 5.47079 -5.47075
-1.86632 5.47134 -5.47143
1.86641 5.47137 -5.47142
5.47081 5.47076 -5.47071
8.74547 5.46973 -5.46969
11.2031 5.47037 -5.47041
11.9249 5.475 -5.47503
-11.8934 8.77276 -5.47319
-11.2113 8.75582 -5.46928
-8.74751 8.74747 -5.46874
-5.46971 8.74545 -5.46972
-1.86563 8.74506 -5.47033
1.86561 8.74507 -5.47031
5.4697 8.74543 -5.46975
8.74742 8.74748 -5.46868
11.2113 8.75578 -5.4693
11.8934 8.77277 -5.4732
-11.859 11.3078 -5.47197
-11.2402 11.2402 -5.46973
-8.75585 11.2113 -5.46927
-5.47035 11.2031 -5.47041
-1.86532 11.2014 -5.47098
1.8653 11.2014 -5.47099
5.47032 11.2031 -5.47038
8.75582 11.2113 -5.46932
11.2402 11.2401 -5.46973
11.859 11.3078 -5.47197
-11.9916 11.9917 -5.47047
-11.3078 11.859 -5.47197
-8.77276 11.8934 -5.47321
-5.475 11.9249 -5.47502
-1.86617 11.9387 -5.47597
1.86618 11.9387 -5.47597
5.47499 11.9249 -5.47503
8.77277 11.8934 -5.4732
11.3078 11.859 -5.47197
11.9916 11.9917 -5.47047
-12.0054 -12.0054 -1.86372
-11.3066 -11.8741 -1.8645
-8.77302 -11.9077 -1.86526
-5.47594 -11.9387 -1.86622
-1.86666 -11.9522 -1.86667
1.86669 -11.9522 -1.86666
5.4759 -11.9387 -1.86625
8.77302 -11.9077 -1.86527
11.3066 -11.8741 -1.86453
12.0053 -12.0054 -1.86371
-11.8741 -11.3066 -1.86454
-11.2382 -11.2382 -1.86429
-8.75544 -11.2096 -1.86456
-5.47098 -11.2014 -1.86535
-1.86574 -11.1996 -1.86575
1.86577 -11.1996 -1.86574
5.47102 -11.2014 -1.86537
8.75547 -11.2096 -1.8646
11.2382 -11.2382 -1.86428
11.8741 -11.3066 -1.86452
-11.9077 -8.77303 -1.86526
-11.2096 -8.75545 -1.8646
-8.74707 -8.7471 -1.86493
-5.47031 -8.74503 -1.86556
-1.866 -8.7446 -1.86603
1.86599 -8.74463 -1.86602
5.47032 -8.74501 -1.86557
8.74703 -8.7471 -1.86495
11.2096 -8.75544 -1.86459
11.9076 -8.77303 -1.86524
-11.9387 -5.47597 -1.86621
-11.2014 -5.47099 -1.86532
-8.74503 -5.47033 -1.8656
-5.47139 -5.47136 -1.86636
-1.86676 -5.47199 -1.86674
1.86673 -5.47201 -1.86674
5.47136 -5.47137 -1.86639
8.74506 -5.47035 -1.86556
11.2014 -5.47097 -1.86533
11.9387 -5.47594 -1.86621
-11.9522 -1.86663 -1.86665
-11.1996 -1.86573 -1.86577
-8.7446 -1.86602 -1.86601
-5.47197 -1.86674 -1.86677
-1.86714 -1.86714 -1.86718
1.86715 -1.86717 -1.86719
5.47196 -1.86674 -1.86671
8.74456 -1.86602 -1.86604
11.1995 -1.86574 -1.86576
11.9522 -1.86666 -1.86666
-11.9522 1.86663 -1.86665
-11.1996 1.86576 -1.86574
-8.7446 1.866 -1.86601
-5.47197 1.86674 -1.86675
-1.86713 1.86714 -1.86708
1.86714 1.86711 -1.86707
5.47197 1.86674 -1.86675
8.74454 1.86598 -1.86601
11.1995 1.86578 -1.86575
11.9522 1.86666 -1.86666
-11.9387 5.47594 -1.86622
-11.2014 5.47101 -1.86538
-8.74502 5.47027 -1.8656
-5.4714 5.47137 -1.86635
-1.86675 5.47192 -1.8668
1.86672 5.47192 -1.86679
5.47134 5.47139 -1.86633
8.74507 5.47027 -1.86563
11.2014 5.471 -1.86541
11.9387 5.47591 -1.86624
-11.9077 8.77295 -1.8653
-11.2096 8.75543 -1.86462
-8.74707 8.74703 -1.86495
-5.47031 8.74506 -1.86561
-1.86599 8.74457 -1.86601
1.866 8.74456 -1.86599
5.47032 8.74507 -1.86569
8.74703 8.74702 -1.86493
11.2096 8.75546 -1.8646
11.9076 8.77296 -1.86531
-11.8741 11.3067 -1.86452
-11.2382 11.2382 -1.86433
-8.75544 11.2096 -1.86463
-5.47098 11.2014 -1.86538
-1.86574 11.1995 -1.86579
1.86577 11.1995 -1.86578
5.471 11.2014 -1.86537
8.75545 11.2096 -1.86462
11.2382 11.2382 -1.86433
11.8741 11.3067 -1.86452
-12.0053 12.0053 -1.86372
-11.3066 11.8741 -1.86453
-8.77302 11.9076 -1.86534
-5.47594 11.9387 -1.86623
-1.86667 11.9522 -1.86668
1.86668 11.9522 -1.86667
5.47593 11.9387 -1.86624
8.77301 11.9076 -1.86531
11.3066 11.8741 -1.86452
12.0054 12.0053 -1.86374
-12.0053 -12.0053 1.86365
-11.3066 -11.8741 1.86444
-8.77302 -11.9077 1.86524
-5.47594 -11.9387 1.86617
-1.86666 -11.9522 1.86666
1.86667 -11.9522 1.86666
5.4759 -11.9387 1.86616
8.773 -11.9077 1.86526
11.3067 -11.8741 1.86446
12.0053 -12.0054 1.86365
-11.8741 -11.3066 1.86449
-11.2382 -11.2382 1.86427
-8.75546 -11.2096 1.86459
-5.47098 -11.2014 1.86527
-1.86575 -11.1996 1.86573
1.86577 -11.1996 1.86573
5.47102 -11.2014 1.86529
8.75546 -11.2096 1.86463
11.2382 -11.2382 1.86428
11.8741 -11.3066 1.86445
-11.9077 -8.77303 1.86524
-11.2096 -8.75545 1.86462
-8.74708 -8.74709 1.86481
-5.47034 -8.74502 1.86563
-1.86599 -8.7446 1.86599
1.86602 -8.74453 1.86598
5.4703 -8.74503 1.86565
8.74705 -8.74706 1.8648
11.2096 -8.75546 1.8646
11.9077 -8.77303 1.86522
-11.9387 -5.47594 1.86612
-11.2014 -5.47098 1.86527
-8.74501 -5.4703 1.86561
-5.47139 -5.47137 1.86623
-1.86676 -5.47197 1.86677
1.86674 -5.47193 1.86676
5.47133 -5.47141 1.86626
8.74506 -5.47029 1.86562
11.2013 -5.47099 1.86526
11.9387 -5.47594 1.86615
-11.9522 -1.86663 1.86664
-11.1996 -1.86575 1.86571
-8.7446 -1.866 1.86597
-5.47197 -1.86677 1.86672
-1.86713 -1.86715 1.86713
1.86715 -1.86705 1.86707
5.47196 -1.86678 1.86675
8.74459 -1.866 1.86594
11.1995 -1.86576 1.8657
11.9522 -1.86664 1.86664
-11.9522 1.86667 1.86666
-11.1996 1.86576 1.86573
-8.74459 1.86603 1.86596
-5.47195 1.86672 1.86677
-1.86714 1.86715 1.86718
1.86716 1.8672 1.86721
5.47199 1.86668 1.86672
8.74463 1.86606 1.86602
11.1995 1.86575 1.86574
11.9523 1.86668 1.86666
-11.9387 5.47595 1.86612
-11.2014 5.47101 1.86526
-8.74502 5.47032 1.86563
-5.47139 5.47134 1.8663
-1.86675 5.47195 1.86671
1.86673 5.47203 1.8667
5.47135 5.47131 1.86637
8.74504 5.47035 1.86558
11.2014 5.47101 1.86526
11.9387 5.47595 1.86615
-11.9077 8.77298 1.86517
-11.2096 8.75543 1.86458
-8.74708 8.74706 1.8648
-5.47033 8.74505 1.86559
-1.86599 8.74455 1.86599
1.86602 8.74468 1.866
5.47029 8.74497 1.86553
8.74702 8.74713 1.86485
11.2096 8.75543 1.86461
11.9076 8.77298 1.86519
-11.8741 11.3067 1.86443
-11.2382 11.2382 1.86424
-8.75546 11.2096 1.86459
-5.47098 11.2014 1.86525
-1.86575 11.1996 1.86572
1.86576 11.1996 1.86572
5.471 11.2013 1.86529
8.75543 11.2096 1.86453
11.2382 11.2382 1.8642
11.8741 11.3067 1.86442
-12.0053 12.0053 1.86363
-11.3066 11.8741 1.86445
-8.77303 11.9077 1.8652
-5.47592 11.9387 1.86616
-1.86668 11.9522 1.86666
1.86667 11.9523 1.86665
5.47592 11.9386 1.86614
8.77299 11.9077 1.86518
11.3066 11.8741 1.86442
12.0053 12.0053 1.86365
-11.9916 -11.9916 5.47038
-11.3078 -11.859 5.47191
-8.77277 -11.8934 5.47313
-5.47499 -11.9249 5.47493
-1.86617 -11.9387 5.47593
1.86619 -11.9387 5.47592
5.47502 -11.9249 5.47493
8.77276 -11.8934 5.47316
11.3078 -11.859 5.4719
11.9917 -11.9916 5.47039
-11.859 -11.3078 5.47191
-11.2402 -11.2402 5.46963
-8.75584 -11.2113 5.46928
-5.47034 -11.2031 5.47029
-1.86533 -11.2014 5.47095
1.8653 -11.2014 5.47094
5.47032 -11.2031 5.47028
8.75582 -11.2113 5.46929
11.2401 -11.2402 5.46963
11.859 -11.3078 5.47191
-11.8934 -8.77278 5.47316
-11.2113 -8.75586 5.46926
-8.74748 -8.74749 5.4686
-5.46968 -8.74541 5.46975
-1.86562 -8.745 5.47027
1.86559 -8.74505 5.47027
5.46971 -8.7454 5.46973
8.74748 -8.7475 5.46856
11.2113 -8.75585 5.46929
11.8934 -8.77277 5.47316
-11.9249 -5.47501 5.47493
-11.2031 -5.47036 5.47035
-8.7454 -5.46969 5.46974
-5.4707 -5.4707 5.47062
-1.86634 -5.47138 5.4714
1.86637 -5.47139 5.4714
5.47077 -5.4707 5.47068
8.74545 -5.46968 5.46976
11.2031 -5.47035 5.4703
11.9249 -5.475 5.47494
-11.9387 -1.86618 5.47591
-11.2014 -1.86531 5.4709
-8.74501 -1.86561 5.47026
-5.47138 -1.86631 5.47141
-1.86675 -1.86675 5.47193
1.86673 -1.86679 5.4719
5.47137 -1.8663 5.47141
8.74504 -1.86561 5.47023
11.2014 -1.86532 5.47093
11.9387 -1.86619 5.47591
-11.9387 1.86617 5.47591
-11.2014 1.86528 5.47093
-8.74502 1.86559 5.47025
-5.4714 1.86634 5.47136
-1.86676 1.86673 5.472
1.86672 1.86669 5.47201
5.47132 1.86637 5.47133
8.74502 1.86559 5.47024
11.2013 1.86529 5.47099
11.9386 1.86616 5.47591
-11.9249 5.47498 5.47498
-11.2031 5.47032 5.47028
-8.74538 5.46967 5.46974
-5.47068 5.47077 5.47072
-1.86631 5.47138 5.47131
1.8664 5.47132 5.47137
5.47076 5.47081 5.47074
8.74547 5.46967 5.46973
11.2031 5.47035 5.47026
11.9249 5.47504 5.47495
-11.8934 8.77275 5.47315
-11.2113 8.75578 5.46926
-8.74749 8.74744 5.46858
-5.46969 8.74543 5.46971
-1.86562 8.74505 5.47025
1.86559 8.74501 5.47028
5.46972 8.74547 5.46965
8.74747 8.74742 5.4686
11.2113 8.7558 5.46927
11.8933 8.77281 5.47316
-11.859 11.3079 5.47194
-11.2402 11.2401 5.46962
-8.75583 11.2113 5.46927
-5.47035 11.2031 5.47028
-1.86532 11.2014 5.47094
1.86533 11.2013 5.47093
5.47036 11.2031 5.4703
8.7558 11.2112 5.46926
11.2402 11.2401 5.46966
11.859 11.3078 5.47194
-11.9916 11.9916 5.4704
-11.3078 11.859 5.47193
-8.77277 11.8934 5.47313
-5.475 11.9249 5.47494
-1.86617 11.9387 5.47589
1.8662 11.9386 5.47589
5.47503 11.925 5.47494
8.77282 11.8933 5.47314
11.3079 11.859 5.47193
11.9917 11.9917 5.47039
-11.9592 -11.9592 8.77986
-11.3139 -11.8237 8.77727
-8.77308 -11.8604 8.77299
-5.47318 -11.8934 8.77271