# vtk DataFile Version 3.0 
Lennard-Jones particle simulation 
ASCII 
DATASET UNSTRUCTURED_GRID 
POINTS 1000 float 
-4.61916 -4.61916 -4.61917
-2.95689 -4.59497 -4.59497
-1.04095 -4.59672 -4.59672
1.10353 -4.60018 -4.60019
3.35593 -4.60205 -4.60205
5.64407 -4.60205 -4.60205
7.89648 -4.60019 -4.60019
10.0409 -4.59672 -4.59672
11.9569 -4.59497 -4.59497
13.6192 -4.61917 -4.61917
-4.59497 -2.95689 -4.59497
-2.94564 -2.94564 -4.56215
-1.03811 -2.94632 -4.56245
1.10367 -2.9476 -4.56566
3.35582 -2.94835 -4.56752
5.64416 -2.94834 -4.56752
7.89633 -2.9476 -4.56566
10.0381 -2.94632 -4.56244
11.9456 -2.94563 -4.56215
13.595 -2.95689 -4.59497
-4.59672 -1.04095 -4.59672
-2.94632 -1.03811 -4.56244
-1.03956 -1.03955 -4.56228
1.10234 -1.0409 -4.56528
3.35533 -1.04152 -4.5671
5.64468 -1.04152 -4.5671
7.89767 -1.04089 -4.56528
10.0396 -1.03955 -4.56228
11.9463 -1.03811 -4.56245
13.5967 -1.04094 -4.59672
-4.60019 1.10353 -4.60019
-2.94761 1.10367 -4.56567
-1.0409 1.10234 -4.56529
1.10119 1.10119 -4.56814
3.35486 1.10065 -4.56991
5.64513 1.10065 -4.56991
7.89881 1.10119 -4.56816
10.0409 1.10234 -4.56528
11.9476 1.10368 -4.56566
13.6002 1.10353 -4.60019
-4.60205 3.35594 -4.60205
-2.94835 3.35583 -4.56753
-1.04152 3.35533 -4.5671
1.10065 3.35487 -4.56992
3.35464 3.35465 -4.57162
5.64535 3.35465 -4.57163
7.89934 3.35487 -4.5699
10.0415 3.35533 -4.56711
11.9483 3.35583 -4.56753
13.602 3.35594 -4.60205
-4.60204 5.64406 -4.60204
-2.94834 5.64418 -4.56752
-1.04152 5.64468 -4.56711
1.10065 5.64513 -4.56989
3.35465 5.64534 -4.57161
5.64535 5.64535 -4.57161
7.89936 5.64513 -4.56991
10.0415 5.64468 -4.5671
11.9484 5.64418 -4.56753
13.6021 5.64407 -4.60205
-4.60019 7.89648 -4.6002
-2.94761 7.89633 -4.56568
-1.0409 7.89768 -4.56529
1.10118 7.8988 -4.56816
3.35486 7.89935 -4.56991
5.64512 7.89934 -4.56992
7.8988 7.89881 -4.56815
10.0409 7.89766 -4.56529
11.9476 7.89632 -4.56567
13.6002 7.89647 -4.60019
-4.59672 10.0409 -4.59672
-2.94632 10.0381 -4.56244
-1.03956 10.0396 -4.56228
1.10234 10.0409 -4.56529
3.35533 10.0415 -4.5671
5.64468 10.0415 -4.5671
7.89767 10.0409 -4.5653
10.0396 10.0396 -4.56227
11.9463 10.0381 -4.56245
13.5967 10.0409 -4.59672
-4.59497 11.9569 -4.59497
-2.94564 11.9456 -4.56216
-1.03811 11.9463 -4.56245
1.10367 11.9476 -4.56567
3.35583 11.9483 -4.56753
5.64417 11.9483 -4.56753
7.89633 11.9476 -4.56567
10.0381 11.9463 -4.56245
11.9456 11.9456 -4.56216
13.595 11.9569 -4.59497
-4.61917 13.6192 -4.61917
-2.95689 13.595 -4.59497
-1.04095 13.5967 -4.59672
1.10353 13.6002 -4.60019
3.35594 13.602 -4.60205
5.64407 13.602 -4.60205
7.89647 13.6002 -4.60019
10.0409 13.5967 -4.59672
11.9569 13.595 -4.59497
13.6192 13.6192 -4.61917
-4.59497 -4.59497 -2.9569
-2.94564 -4.56215 -2.94564
-1.03811 -4.56245 -2.94632
1.10367 -4.56566 -2.94761
3.35582 -4.56753 -2.94835
5.64416 -4.56753 -2.94835
7.89633 -4.56566 -2.94761
10.0381 -4.56244 -2.94632
11.9456 -4.56215 -2.94564
13.595 -4.59497 -2.95689
-4.56215 -2.94564 -2.94564
-2.92749 -2.92749 -2.92749
-1.03164 -2.92667 -2.92666
1.10552 -2.9274 -2.9274
3.3562 -2.92797 -2.92797
5.64381 -2.92797 -2.92797
7.89447 -2.9274 -2.9274
10.0317 -2.92667 -2.92666
11.9275 -2.92749 -2.92749
13.5622 -2.94564 -2.94564
-4.56245 -1.03811 -2.94632
-2.92667 -1.03164 -2.92666
-1.03223 -1.03222 -2.92546
1.10459 -1.03318 -2.926
3.35581 -1.03367 -2.92654
5.64419 -1.03367 -2.92654
7.89541 -1.03318 -2.92599
10.0322 -1.03222 -2.92546
11.9267 -1.03164 -2.92667
13.5624 -1.03811 -2.94632
-4.56566 1.10367 -2.94761
-2.92739 1.10553 -2.9274
-1.03318 1.10459 -2.92601
1.10361 1.10362 -2.92646
3.35541 1.10316 -2.92696
5.64459 1.10316 -2.92696
7.89639 1.10362 -2.92648
10.0332 1.1046 -2.92599
11.9274 1.10553 -2.92739
13.5657 1.10367 -2.9476
-4.56752 3.35582 -2.94835
-2.92797 3.3562 -2.92797
-1.03367 3.35581 -2.92654
1.10315 3.3554 -2.92697
3.3552 3.3552 -2.92742
5.64481 3.35521 -2.92743
7.89686 3.35539 -2.92695
10.0337 3.35582 -2.92655
11.928 3.3562 -2.92797
13.5675 3.35583 -2.94835
-4.56754 5.64417 -2.94834
-2.92798 5.6438 -2.92797
-1.03368 5.64419 -2.92654
1.10315 5.6446 -2.92694
3.35519 5.64481 -2.92741
5.64481 5.6448 -2.92741
7.89686 5.6446 -2.92696
10.0337 5.64418 -2.92653
11.928 5.64379 -2.92797
13.5675 5.64417 -2.94835
-4.56566 7.89633 -2.94761
-2.92739 7.89448 -2.92741
-1.03319 7.8954 -2.926
1.10361 7.89638 -2.92647
3.35541 7.89686 -2.92697
5.64459 7.89686 -2.92697
7.89639 7.89638 -2.92646
10.0332 7.89541 -2.92601
11.9274 7.89448 -2.9274
13.5657 7.89633 -2.94761
-4.56245 10.0381 -2.94633
-2.92667 10.0316 -2.92667
-1.03223 10.0322 -2.92546
1.10459 10.0332 -2.92601
3.35581 10.0337 -2.92654
5.64418 10.0337 -2.92654
7.8954 10.0332 -2.92602
10.0322 10.0322 -2.92545
11.9267 10.0316 -2.92667
13.5624 10.0381 -2.94632
-4.56216 11.9456 -2.94564
-2.92749 11.9275 -2.9275
-1.03164 11.9267 -2.92667
1.10552 11.9274 -2.92741
3.3562 11.928 -2.92798
5.6438 11.928 -2.92798
7.89447 11.9274 -2.9274
10.0317 11.9267 -2.92667
11.9275 11.9275 -2.9275
13.5622 11.9456 -2.94564
-4.59498 13.595 -2.9569
-2.94564 13.5622 -2.94564
-1.03812 13.5624 -2.94633
1.10367 13.5657 -2.94761
3.35582 13.5675 -2.94835
5.64416 13.5675 -2.94835
7.89633 13.5657 -2.94761
10.0381 13.5624 -2.94633
11.9456 13.5622 -2.94564
13.595 13.595 -2.9569
-4.59672 -4.59672 -1.04095
-2.94633 -4.56245 -1.03811
-1.03956 -4.56227 -1.03955
1.10233 -4.56529 -1.0409
3.35532 -4.56711 -1.04152
5.64469 -4.56711 -1.04152
7.89767 -4.56529 -1.0409
10.0396 -4.56228 -1.03955
11.9463 -4.56245 -1.03812
13.5967 -4.59672 -1.04095
-4.56245 -2.94633 -1.03811
-2.92667 -2.92668 -1.03164
-1.03223 -2.92545 -1.03223
1.10459 -2.92601 -1.03319
3.35581 -2.92654 -1.03367
5.64419 -2.92654 -1.03367
7.89541 -2.926 -1.03319
10.0322 -2.92546 -1.03222
11.9267 -2.92667 -1.03164
13.5625 -2.94633 -1.03812
-4.56227 -1.03956 -1.03955
-2.92545 -1.03223 -1.03223
-1.0326 -1.03259 -1.0326
1.10375 -1.03346 -1.03345
3.35545 -1.03391 -1.03391
5.64455 -1.03391 -1.03391
7.89625 -1.03345 -1.03344
10.0326 -1.0326 -1.03261
11.9255 -1.03223 -1.03223
13.5623 -1.03956 -1.03956
-4.56529 1.10233 -1.0409
-2.92601 1.10459 -1.03318
-1.03346 1.10375 -1.03345
1.10282 1.10282 -1.03427
3.35505 1.10237 -1.03472
5.64494 1.10236 -1.03471
7.89718 1.10283 -1.03429
10.0334 1.10374 -1.03344
11.926 1.10459 -1.03319
13.5653 1.10233 -1.04089
-4.56711 3.35532 -1.04153
-2.92655 3.35581 -1.03367
-1.03392 3.35543 -1.03391
1.10236 3.35505 -1.03473
3.35484 3.35485 -1.03514
5.64514 3.35485 -1.03515
7.89762 3.35505 -1.03471
10.0339 3.35543 -1.03392
11.9265 3.35581 -1.03367
13.5671 3.35532 -1.04153
-4.56712 5.64468 -1.04152
-2.92655 5.64418 -1.03367
-1.03391 5.64455 -1.03392
1.10237 5.64494 -1.0347
3.35486 5.64515 -1.03512
5.64515 5.64515 -1.03512
7.89764 5.64496 -1.03472
10.0339 5.64454 -1.03391
11.9265 5.64419 -1.03366
13.5671 5.64467 -1.04152
-4.56527 7.89766 -1.04091
-2.926 7.89541 -1.03319
-1.03345 7.89624 -1.03345
1.10282 7.89717 -1.03428
3.35504 7.89763 -1.03472
5.64495 7.89763 -1.03473
7.89717 7.89718 -1.03427
10.0334 7.89624 -1.03346
11.926 7.89541 -1.03319
13.5653 7.89766 -1.04091
-4.56226 10.0396 -1.03956
-2.92544 10.0322 -1.03223
-1.03259 10.0326 -1.0326
1.10376 10.0334 -1.03346
3.35545 10.0339 -1.03391
5.64455 10.0339 -1.03391
7.89625 10.0335 -1.03347
10.0326 10.0326 -1.03259
11.9255 10.0322 -1.03223
13.5623 10.0396 -1.03956
-4.56244 11.9463 -1.03812
-2.92666 11.9267 -1.03165
-1.03222 11.9254 -1.03223
1.1046 11.926 -1.03319
3.35581 11.9265 -1.03367
5.64418 11.9265 -1.03367
7.89541 11.926 -1.03319
10.0322 11.9254 -1.03224
11.9267 11.9267 -1.03165
13.5624 11.9463 -1.03812
-4.59671 13.5967 -1.04095
-2.94631 13.5625 -1.03812
-1.03955 13.5623 -1.03956
1.10234 13.5653 -1.0409
3.35533 13.5671 -1.04152
5.64468 13.5671 -1.04152
7.89767 13.5653 -1.0409
10.0396 13.5623 -1.03956
11.9463 13.5624 -1.03812
13.5967 13.5967 -1.04096
-4.60017 -4.60017 1.10352
-2.94759 -4.56565 1.10367
-1.04089 -4.56528 1.10234
1.10119 -4.56814 1.10118
3.35487 -4.56991 1.10065
5.64513 -4.56991 1.10065
7.8988 -4.56814 1.10118
10.0409 -4.56527 1.10234
11.9476 -4.56565 1.10367
13.6002 -4.60018 1.10352
-4.56565 -2.94759 1.10367
-2.92738 -2.92738 1.10552
-1.03317 -2.926 1.10458
1.10362 -2.92646 1.1036
3.35541 -2.92696 1.10316
5.64459 -2.92696 1.10315
7.89637 -2.92646 1.10361
10.0332 -2.92599 1.10459
11.9274 -2.92739 1.10552
13.5656 -2.94759 1.10367
-4.56528 -1.04088 1.10234
-2.926 -1.03317 1.10459
-1.03346 -1.03345 1.10374
1.10282 -1.03426 1.10284
3.35505 -1.03472 1.10237
5.64495 -1.03471 1.10236
7.89718 -1.03427 1.10284
10.0335 -1.03344 1.10373
11.926 -1.03318 1.10459
13.5653 -1.04089 1.10233
-4.56814 1.1012 1.10118
-2.92645 1.10362 1.10361
-1.03426 1.10283 1.10282
1.10192 1.10192 1.10191
3.35468 1.10145 1.10146
5.64535 1.10146 1.10146
7.89811 1.10191 1.10189
10.0343 1.10284 1.10284
11.9265 1.10361 1.10361
13.5682 1.10119 1.10118
-4.56991 3.35487 1.10064
-2.92696 3.35541 1.10315
-1.03472 3.35505 1.10236
1.10145 3.35467 1.10145
3.35446 3.35445 1.10101
5.64553 3.35446 1.101
7.89854 3.35467 1.10147
10.0347 3.35506 1.10235
11.927 3.35541 1.10315
13.5699 3.35488 1.10064
-4.56991 5.64514 1.10065
-2.92696 5.64458 1.10316
-1.03472 5.64495 1.10237
1.10145 5.64534 1.10147
3.35445 5.64554 1.10103
5.64553 5.64553 1.10103
7.89854 5.64534 1.10145
10.0347 5.64495 1.10237
11.927 5.64458 1.10316
13.5699 5.64513 1.10065
-4.56814 7.89881 1.10118
-2.92646 7.89637 1.1036
-1.03426 7.89718 1.10283
1.10192 7.8981 1.1019
3.35467 7.89853 1.10144
5.64536 7.89854 1.10144
7.89811 7.8981 1.10192
10.0343 7.89718 1.10282
11.9265 7.89638 1.1036
13.5682 7.89881 1.10118
-4.56529 10.0409 1.10233
-2.92601 10.0332 1.10459
-1.03346 10.0334 1.10373
1.10282 10.0343 1.10281
3.35504 10.0347 1.10237
5.64495 10.0347 1.10237
7.89718 10.0343 1.1028
10.0334 10.0335 1.10374
11.926 10.0332 1.10458
13.5653 10.0409 1.10233
-4.56565 11.9476 1.10367
-2.92738 11.9274 1.10552
-1.03318 11.926 1.10459
1.10362 11.9265 1.1036
3.35541 11.927 1.10315
5.64459 11.927 1.10315
7.89637 11.9265 1.10361
10.0332 11.926 1.10457
11.9274 11.9274 1.10552
13.5656 11.9476 1.10367
-4.60018 13.6002 1.10352
-2.9476 13.5656 1.10367
-1.04089 13.5653 1.10233
[...]
POINT_DATA 1000
SCALARS mass float 
LOOKUP_TABLE default 
1
1
1
1
1
1
1
1
1
1
1
1
1
1
1
1
1
1
1
1
1
1
1
1
1
1
1
1
1
1
1
1
1
1
1
1
1
1
1
1
1
1
1
1
1
1
1
1
1
1
1
1
1
1
1
1
1
1
1
1
1
1
1
1
1
1
1
1
1
1
1
1
1
1
1
1
1
1
1
1
1
1
1
1
1
1
1
1
1
1
1
1
1
1
1
1
1
1
1
1
1
1
1
1
1
1
1
1
1
1
1
1
1
1
1
1
1
1
1
1
1
1
1
1
1
1
1
1
1
1
1
1
1
1
1
1
1
1
1
1
1
1
1
1
1
1
1
1
1
1
1
1
1
1
1
1
1
1
1
1
1
1
1
1
1
1
1
1
1
1
1
1
1
1
1
1
1
1
1
1
1
1
1
1
1
1
1
1
1
1
1
1
1
1
1
1
1
1
1
1
1
1
1
1
1
1
1
1
1
1
1
1
1
1
1
1
1
1
1
1
1
1
1
1
1
1
1
1
1
1
1
1
1
1
1
1
1
1
1
1
1
1
1
1
1
1
1
1
1
1
1
1
1
1
1
1
1
1
1
1
1
1
1
1
1
1
1
1
1
1
1
1
1
1
1
1
1
1
1
1
1
1
1
1
1
1
1
1
1
1
1
1
1
1
1
1
1
1
1
1
1
1
1
1
1
1
1
1
1
1
1
1
1
1
1
1
1
1
1
1
1
1
1
1
1
1
1
1
1
1
1
1
1
1
1
1
1
1
1
1
1
1
1
1
1
1
1
1
1
1
1
1
1
1
1
1
1
1
1
1
1
1
1
1
1
1
1
1
1
1
1
1
1
1
1
1
1
1
1
1
1
1
1
1
1
1
1
1
1
1
1
1
1
1
1
1
1
1
1
1
1
1
1
1
1
1
1
1
1
1
1
1
1
1
1
1
1
1
1
1
1
1
1
1
1
1
1
1
1
1
1
1
1
1
1
1
1
1
1
1
1
1
1
1
1
1
1
1
1
1
1
1
1
1
1
1
1
1
1
1
1
1
1
1
1
1
1
1
1
1
1
1
1
1
1
1
1
1
1
1
1
1
1
1
1
1
1
1
1
1
1
1
1
1
1
1
1
1
1
1
1
1
1
1
1
1
1
1
1
1
1
1
1
1
1
1
1
1
1
1
1
1
1
1
1
1
1
1
1
1
1
1
1
1
1
1
1
1
1
1
1
1
1
1
1
1
1
1
1
1
1
1
1
1
1
1
1
1
1
1
1
1
1
1
1
1
1
1
1
1
1
1
1
1
1
1
1
1
1
1
1
1
1
1
1
1
1
1
1
1
1
1
1
1
1
1
1
1
1
1
1
1
1
1
1
1
1
1
1
1
1
1
1
1
1
1
1
1
1
1
1
1
1
1
1
1
1
1
1
1
1
1
1
1
1
1
1
1
1
1
1
1
1
1
1
1
1
1
1
1
1
1
1
1
1
1
1
1
1
1
1
1
1
1
1
1
1
1
1
1
1
1
1
1
1
1
1
1
1
1
1
1
1
1
1
1
1
1
1
1
1
1
1
1
1
1
1
1
1
1
1
1
1
1
1
1
1
1
1
1
1
1
1
1
1
1
1
1
1
1
1
1
1
1
1
1
1
1
1
1
1
1
1
1
1
1
1
1
1
1
1
1
1
1
1
1
1
1
1
1
1
1
1
1
1
1
1
1
1
1
1
1
1
1
1
1
1
1
1
1
1
1
1
1
1
1
1
1
1
1
1
1
1
1
1
1
1
1
1
1
1
1
1
1
1
1
1
1
1
1
1
1
1
1
1
1
1
1
1
1
1
1
1
1
1
1
1
1
1
1
1
1
1
1
1
1
1
1
1
1
1
1
1
1
1
1
1
1
1
1
1
1
1
1
1
1
1
1
1
1
1
1
1
1
1
1
1
1
1
1
1
1
1
1
1
1
1
1
1
1
1
1
1
1
1
1
1
1
1
1
1
1
1
1
1
1
1
1
1
1
1
1
1
1
1
1
1
1
1
1
1
1
1
1
1
1
1
1
1
1
1
1
1
1
1
1
1
1
1
1
1
1
1
1
1
1
1
1
1
1
1
1
1
1
1
1
1
1
1
1
1
1
1
1
1
1
1
1
1
1
1
1
1
1
1
1
1
1
1
1
1
1
1
1
1
1
1
1
1
1
1
1
1
1
1
1
1
1
1
1
1
1
1
1
1
1
1
1
1
1
1
1
1
1
1
1
1
1
1
1
VECTORS velocity float 
-12.3297 -12.3297 -12.3297
-11.1668 -12.239 -12.239
-8.73094 -12.2558 -12.2558
-5.4587 -12.2756 -12.2757
-1.86053 -12.2852 -12.2852
1.86055 -12.2852 -12.2852
5.45875 -12.2756 -12.2757
8.73094 -12.2558 -12.2558
11.1668 -12.239 -12.239
12.3297 -12.3297 -12.3297
-12.239 -11.1668 -12.239
-11.1193 -11.1193 -12.123
-8.72262 -11.1167 -12.1382
-5.45916 -11.1183 -12.1592
-1.86115 -11.1198 -12.1694
1.86109 -11.1198 -12.1694
5.45917 -11.1183 -12.1592
8.72261 -11.1167 -12.1381
11.1193 -11.1193 -12.123
12.239 -11.1668 -12.239
-12.2558 -8.73095 -12.2558
-11.1167 -8.72262 -12.1381
-8.72346 -8.72345 -12.1521
-5.46174 -8.72493 -12.1723
-1.86224 -8.72571 -12.1824
1.86228 -8.72571 -12.1824
5.46176 -8.72493 -12.1723
8.72345 -8.72345 -12.1521
11.1167 -8.7226 -12.1382
12.2558 -8.73093 -12.2558
-12.2756 -5.4587 -12.2757
-11.1183 -5.45918 -12.1592
-8.72494 -5.46172 -12.1724
-5.46408 -5.46407 -12.1919
-1.86335 -5.46515 -12.2017
1.86335 -5.46515 -12.2017
5.46408 -5.46408 -12.192
8.72493 -5.46174 -12.1723
11.1183 -5.45915 -12.1591
12.2757 -5.45871 -12.2756
-12.2852 -1.86049 -12.2852
-11.1198 -1.86113 -12.1694
-8.72573 -1.86224 -12.1824
-5.46517 -1.86335 -12.2018
-1.86387 -1.86386 -12.2114
1.86387 -1.86386 -12.2114
5.46512 -1.86334 -12.2017
8.72568 -1.86224 -12.1824
11.1198 -1.86114 -12.1694
12.2851 -1.86051 -12.2852
-12.2851 1.8605 -12.2851
-11.1198 1.86115 -12.1694
-8.72572 1.86227 -12.1824
-5.46516 1.86334 -12.2017
-1.86383 1.86384 -12.2113
1.86386 1.86385 -12.2113
5.46517 1.86334 -12.2017
8.72574 1.86227 -12.1824
11.1198 1.86115 -12.1694
12.2852 1.86052 -12.2851
-12.2757 5.45876 -12.2757
-11.1183 5.45918 -12.1592
-8.72496 5.46181 -12.1723
-5.46408 5.46404 -12.1919
-1.86336 5.46514 -12.2017
1.86331 5.46513 -12.2018
5.46405 5.46405 -12.1919
8.72494 5.46173 -12.1724
11.1183 5.45915 -12.1592
12.2756 5.45872 -12.2757
-12.2558 8.73093 -12.2558
-11.1167 8.72259 -12.1382
-8.72346 8.72346 -12.1521
-5.46174 8.72495 -12.1724
-1.86223 8.72573 -12.1824
1.86228 8.72573 -12.1824
5.46176 8.72495 -12.1724
8.72345 8.72346 -12.1521
11.1167 8.72264 -12.1382
12.2558 8.73094 -12.2558
-12.239 11.1668 -12.239
-11.1193 11.1192 -12.123
-8.72263 11.1167 -12.1382
-5.45917 11.1183 -12.1592
-1.86112 11.1198 -12.1694
1.86111 11.1198 -12.1694
5.45919 11.1183 -12.1592
8.7226 11.1167 -12.1382
11.1192 11.1193 -12.123
12.239 11.1668 -12.239
-12.3297 12.3297 -12.3297
-11.1668 12.239 -12.239
-8.73094 12.2558 -12.2558
-5.45871 12.2756 -12.2757
-1.86052 12.2852 -12.2852
1.86054 12.2852 -12.2852
5.45873 12.2756 -12.2757
8.73094 12.2558 -12.2558
11.1668 12.239 -12.239
12.3297 12.3297 -12.3297
-12.239 -12.239 -11.1668
-11.1193 -12.123 -11.1193
-8.72263 -12.1382 -11.1167
-5.45916 -12.1592 -11.1183
-1.86114 -12.1694 -11.1198
1.86109 -12.1694 -11.1198
5.4592 -12.1592 -11.1183
8.7226 -12.1382 -11.1167
11.1192 -12.123 -11.1193
12.239 -12.239 -11.1668
-12.123 -11.1193 -11.1193
-11.044 -11.044 -11.044
-8.70203 -11.0359 -11.0359
-5.45439 -11.0357 -11.0357
-1.86031 -11.0368 -11.0368
1.86034 -11.0368 -11.0368
5.45434 -11.0357 -11.0357
8.70208 -11.0359 -11.0359
11.0441 -11.044 -11.044
12.123 -11.1193 -11.1193
-12.1382 -8.72261 -11.1167
-11.0359 -8.70203 -11.0359
-8.6997 -8.69968 -11.0266
-5.45556 -8.69958 -11.0259
-1.86109 -8.6998 -11.0269
1.86107 -8.69979 -11.0269
5.45557 -8.6996 -11.0259
8.6997 -8.69968 -11.0266
11.0359 -8.70204 -11.0359
12.1382 -8.72263 -11.1167
-12.1591 -5.45917 -11.1183
-11.0357 -5.45436 -11.0357
-8.6996 -5.45555 -11.0259
-5.45721 -5.45721 -11.0249
-1.86194 -5.45799 -11.0258
1.86196 -5.45799 -11.0258
5.45724 -5.45721 -11.025
8.69961 -5.45555 -11.0259
11.0357 -5.45438 -11.0357
12.1592 -5.45917 -11.1183
-12.1694 -1.86114 -11.1198
-11.0368 -1.86031 -11.0368
-8.69979 -1.86108 -11.0269
-5.45799 -1.86199 -11.0258
-1.86241 -1.86242 -11.0265
1.86244 -1.8624 -11.0265
5.45805 -1.862 -11.0257
8.69981 -1.86105 -11.0269
11.0368 -1.8603 -11.0368
12.1694 -1.86113 -11.1198
-12.1694 1.86113 -11.1198
-11.0368 1.86031 -11.0368
-8.69983 1.86106 -11.0269
-5.458 1.86199 -11.0257
-1.86244 1.86244 -11.0265
1.86244 1.86243 -11.0265
5.45803 1.86198 -11.0258
8.69981 1.86104 -11.0269
11.0368 1.86029 -11.0368
12.1694 1.86113 -11.1198
-12.1591 5.45919 -11.1183
-11.0357 5.45439 -11.0357
-8.69961 5.45554 -11.0259
-5.45722 5.45721 -11.025
-1.86195 5.45803 -11.0258
1.86197 5.45804 -11.0258
5.45724 5.45721 -11.0249
8.69963 5.45557 -11.0259
11.0357 5.45438 -11.0357
12.1592 5.4592 -11.1183
-12.1382 8.72261 -11.1167
-11.0359 8.70207 -11.0359
-8.69969 8.69973 -11.0266
-5.45555 8.69964 -11.0259
-1.86109 8.69981 -11.0269
1.86105 8.69982 -11.0269
5.45555 8.69962 -11.0259
8.69972 8.69973 -11.0266
11.0359 8.70206 -11.0359
12.1382 8.7226 -11.1167
-12.123 11.1192 -11.1193
-11.044 11.0441 -11.044
-8.70203 11.0359 -11.0359
-5.4544 11.0357 -11.0357
-1.86032 11.0368 -11.0368
1.86034 11.0368 -11.0368
5.45434 11.0357 -11.0357
8.70208 11.0359 -11.0359
11.0441 11.0441 -11.044
12.123 11.1193 -11.1193
-12.239 12.239 -11.1668
-11.1193 12.123 -11.1193
-8.72264 12.1382 -11.1167
-5.45917 12.1592 -11.1183
-1.86115 12.1694 -11.1198
1.86108 12.1694 -11.1198
5.4592 12.1592 -11.1183
8.7226 12.1382 -11.1167
11.1193 12.123 -11.1193
12.239 12.239 -11.1668
-12.2558 -12.2558 -8.73096
-11.1167 -12.1382 -8.72262
-8.72348 -12.1521 -8.72345
-5.46176 -12.1724 -8.72495
-1.86225 -12.1824 -8.72571
1.86229 -12.1824 -8.72572
5.46177 -12.1723 -8.72495
8.72347 -12.1521 -8.72344
11.1167 -12.1382 -8.72264
12.2558 -12.2558 -8.73096
-12.1382 -11.1167 -8.72262
-11.0359 -11.0359 -8.70203
-8.6997 -11.0266 -8.69969
-5.45557 -11.0259 -8.69962
-1.86109 -11.0269 -8.69979
1.86107 -11.0269 -8.69979
5.45557 -11.0259 -8.69961
8.69973 -11.0266 -8.69969
11.0359 -11.0359 -8.70204
12.1382 -11.1167 -8.72264
-12.1521 -8.72347 -8.72345
-11.0266 -8.6997 -8.69969
-8.69678 -8.69677 -8.6968
-5.45653 -8.69645 -8.69641
-1.86177 -8.69657 -8.69658
1.86176 -8.69658 -8.69657
5.45652 -8.69644 -8.6964
8.69677 -8.6968 -8.69682
11.0266 -8.69969 -8.6997
12.1521 -8.72347 -8.72346
-12.1724 -5.46175 -8.72494
-11.0259 -5.45557 -8.69959
-8.69646 -5.45653 -8.69642
-5.45808 -5.45806 -8.696
-1.86265 -5.45885 -8.69611
1.86262 -5.45886 -8.69609
5.45808 -5.45804 -8.69606
8.69638 -5.45657 -8.69639
11.0259 -5.45556 -8.6996
12.1723 -5.46175 -8.72493
-12.1824 -1.86227 -8.72574
-11.0269 -1.86107 -8.69981
-8.69658 -1.86182 -8.69658
-5.45887 -1.86265 -8.69615
-1.86309 -1.86307 -8.69616
1.86306 -1.86309 -8.6962
5.45881 -1.86264 -8.69609
8.69653 -1.86183 -8.69659
11.0269 -1.86108 -8.69981
12.1824 -1.86225 -8.72573
-12.1824 1.86227 -8.72572
-11.0269 1.86104 -8.69979
-8.69657 1.86176 -8.69659
-5.45884 1.86261 -8.69606
-1.86307 1.86308 -8.69612
1.86308 1.86306 -8.69609
5.45887 1.86267 -8.69612
8.69657 1.86172 -8.69657
11.0269 1.86107 -8.69978
12.1824 1.86224 -8.72572
-12.1723 5.46172 -8.72497
-11.0259 5.45556 -8.69962
-8.69642 5.4565 -8.69642
-5.45807 5.45805 -8.69602
-1.86267 5.45885 -8.69613
1.86263 5.45883 -8.69613
5.45806 5.45808 -8.69598
8.69633 5.4565 -8.69644
11.0258 5.45555 -8.69962
12.1723 5.46172 -8.72498
-12.1521 8.72346 -8.72348
-11.0266 8.69974 -8.69968
-8.69675 8.69675 -8.6968
-5.45649 8.69639 -8.69645
-1.86176 8.69655 -8.69657
1.86177 8.69655 -8.69655
5.45653 8.69642 -8.69647
8.69676 8.69674 -8.69677
11.0266 8.69972 -8.69971
12.1521 8.72346 -8.72347
-12.1381 11.1167 -8.72265
-11.0359 11.0359 -8.70205
-8.69967 11.0266 -8.69969
-5.45553 11.0258 -8.69962
-1.86108 11.0269 -8.69981
1.86104 11.0269 -8.69981
5.45557 11.0259 -8.6996
8.69973 11.0265 -8.69972
11.0359 11.0359 -8.70205
12.1382 11.1167 -8.72265
-12.2557 12.2558 -8.73097
-11.1167 12.1382 -8.72264
-8.72345 12.1521 -8.72348
-5.46172 12.1723 -8.72496
-1.86225 12.1824 -8.72573
1.86228 12.1824 -8.72573
5.46175 12.1723 -8.72496
8.72346 12.1521 -8.72348
11.1167 12.1382 -8.72265
12.2557 12.2558 -8.73098
-12.2756 -12.2756 -5.45875
-11.1183 -12.1591 -5.45918
-8.72491 -12.1723 -5.46174
-5.46406 -12.1919 -5.4641
-1.86332 -12.2017 -5.46516
1.86334 -12.2017 -5.46516
5.46405 -12.1919 -5.46411
8.72492 -12.1723 -5.46173
11.1183 -12.1591 -5.45918
12.2756 -12.2756 -5.45874
-12.1591 -11.1183 -5.45919
-11.0357 -11.0357 -5.45439
-8.69957 -11.0259 -5.45561
-5.4572 -11.0249 -5.45726
-1.86195 -11.0258 -5.45799
1.86194 -11.0258 -5.458
5.45717 -11.0249 -5.45725
8.69955 -11.0259 -5.45555
11.0356 -11.0357 -5.45439
12.1591 -11.1183 -5.45916
-12.1723 -8.7249 -5.46174
-11.0259 -8.69957 -5.45555
-8.69643 -8.69642 -5.45656
-5.45806 -8.69597 -5.45802
-1.86265 -8.69611 -5.45884
1.86264 -8.69609 -5.45885
5.45807 -8.69599 -5.45801
8.69642 -8.69639 -5.45658
11.0259 -8.69959 -5.45557
12.1724 -8.72491 -5.46177
-12.1919 -5.46406 -5.46411
-11.0249 -5.45721 -5.45722
-8.69597 -5.45804 -5.45806
-5.45955 -5.45955 -5.45958
-1.86346 -5.46037 -5.46034
1.86353 -5.46036 -5.46034
5.45963 -5.45958 -5.45962
8.69603 -5.45801 -5.458
11.0249 -5.45722 -5.45725
12.1919 -5.46406 -5.46409
-12.2017 -1.86333 -5.46518
-11.0258 -1.86196 -5.45802
-8.6961 -1.86265 -5.45886
-5.46037 -1.86349 -5.46038
-1.86395 -1.86397 -5.4611
1.86394 -1.86395 -5.46113
5.46035 -1.86348 -5.46032
8.69612 -1.86263 -5.45889
11.0258 -1.86195 -5.45801
12.2017 -1.8633 -5.46518
-12.2017 1.86336 -5.46515
-11.0258 1.86193 -5.45799
-8.69611 1.86265 -5.45885
-5.46037 1.86351 -5.46032
-1.86397 1.86395 -5.46106
1.86393 1.86392 -5.46105
5.46034 1.8635 -5.46038
8.6961 1.86264 -5.45884
11.0257 1.86193 -5.45799
12.2017 1.86332 -5.46517
-12.1919 5.46406 -5.46409
-11.0249 5.45717 -5.45728
-8.69598 5.45808 -5.45804
-5.45954 5.45963 -5.45959
-1.86349 5.46032 -5.4604
1.86358 5.46035 -5.4604
5.45965 5.4596 -5.45955
8.69605 5.45809 -5.45805
11.025 5.45722 -5.45727
12.192 5.46407 -5.4641
-12.1724 8.72492 -5.46174
-11.0259 8.69956 -5.45556
-8.69645 8.69641 -5.4566
-5.45808 8.69603 -5.45809
-1.86267 8.69613 -5.45884
1.86265 8.69614 -5.45882
5.45807 8.69601 -5.45812
8.69636 8.69642 -5.45654
11.0259 8.69952 -5.45559
12.1723 8.72493 -5.46175
-12.1591 11.1183 -5.45919
-11.0357 11.0357 -5.4544
-8.69958 11.0259 -5.45556
-5.45721 11.025 -5.45727
-1.86195 11.0258 -5.45799
1.86193 11.0258 -5.458
5.45717 11.0249 -5.45724
8.69956 11.0259 -5.45562
11.0357 11.0356 -5.45439
12.1591 11.1183 -5.45918
-12.2756 12.2756 -5.45875
-11.1183 12.1591 -5.45919
-8.72492 12.1723 -5.46177
-5.46406 12.192 -5.46408
-1.86332 12.2017 -5.46519
1.86334 12.2017 -5.46518
5.46406 12.1919 -5.46409
8.72492 12.1723 -5.46175
11.1183 12.1591 -5.45919
12.2756 12.2756 -5.45875
-12.2852 -12.2852 -1.86057
-11.1198 -12.1694 -1.86114
-8.72572 -12.1824 -1.86227
-5.46516 -12.2017 -1.86337
-1.86385 -12.2114 -1.86387
1.86388 -12.2114 -1.86385
5.46511 -12.2017 -1.8634
8.72571 -12.1824 -1.86227
11.1198 -12.1694 -1.86117
12.2851 -12.2852 -1.86056
-12.1694 -11.1198 -1.86118
-11.0368 -11.0368 -1.86032
-8.69979 -11.0269 -1.86103
-5.45799 -11.0258 -1.86198
-1.86241 -11.0265 -1.86242
1.86245 -11.0265 -1.86242
5.45803 -11.0258 -1.862
8.69982 -11.0269 -1.86107
11.0368 -11.0367 -1.86031
12.1695 -11.1198 -1.86117
-12.1824 -8.72572 -1.86226
-11.0269 -8.6998 -1.86107
-8.69654 -8.69656 -1.86183
-5.45883 -8.69611 -1.8626
-1.86307 -8.69616 -1.86311
1.86307 -8.69619 -1.8631
5.45883 -8.69609 -1.8626
8.6965 -8.69657 -1.86185
11.0268 -8.69979 -1.86106
12.1823 -8.72572 -1.86224
-12.2017 -5.46518 -1.86336
-11.0258 -5.458 -1.86195
-8.69611 -5.45884 -1.86264
-5.46037 -5.46034 -1.86353
-1.86397 -5.4611 -1.86395
1.86394 -5.46111 -1.86395
5.46034 -5.46035 -1.86356
8.69613 -5.45886 -1.8626
11.0258 -5.45799 -1.86196
12.2017 -5.46516 -1.86337
-12.2114 -1.86383 -1.86384
-11.0265 -1.8624 -1.86244
-8.69616 -1.8631 -1.86309
-5.46108 -1.86395 -1.86398
-1.86438 -1.86438 -1.86442
1.86439 -1.86441 -1.86443
5.46107 -1.86394 -1.86391
8.69612 -1.86309 -1.86312
11.0264 -1.86241 -1.86243
12.2113 -1.86386 -1.86385
-12.2113 1.86383 -1.86385
-11.0265 1.86244 -1.86241
-8.69615 1.86307 -1.86309
-5.46108 1.86395 -1.86396
-1.86437 1.86438 -1.86432
1.86438 1.86435 -1.86432
5.46107 1.86395 -1.86396
8.6961 1.86306 -1.86309
11.0265 1.86245 -1.86242
12.2113 1.86385 -1.86385
-12.2017 5.46515 -1.86337
-11.0258 5.45803 -1.86201
-8.6961 5.45879 -1.86264
-5.46038 5.46035 -1.86352
-1.86396 5.46103 -1.864
1.86393 5.46103 -1.86399
5.46032 5.46036 -1.8635
8.69614 5.45879 -1.86267
11.0258 5.45802 -1.86204
12.2017 5.46513 -1.8634
-12.1824 8.72565 -1.86231
-11.0269 8.69979 -1.86108
-8.69654 8.6965 -1.86185
-5.45882 8.69613 -1.86265
-1.86306 8.69613 -1.86309
1.86307 8.69612 -1.86307
5.45883 8.69614 -1.86273
8.6965 8.69649 -1.86183
11.0269 8.69981 -1.86107
12.1824 8.72566 -1.86233
-12.1694 11.1198 -1.86116
-11.0367 11.0368 -1.86037
-8.69979 11.0269 -1.86109
-5.45799 11.0258 -1.86202
-1.86241 11.0264 -1.86246
1.86245 11.0264 -1.86245
5.45802 11.0258 -1.862
8.6998 11.0268 -1.86109
11.0368 11.0368 -1.86037
12.1694 11.1198 -1.86116
-12.2851 12.2851 -1.86058
-11.1198 12.1694 -1.86117
-8.72571 12.1824 -1.86235
-5.46515 12.2017 -1.86338
-1.86386 12.2113 -1.86387
1.86387 12.2113 -1.86387
5.46514 12.2018 -1.86339
8.7257 12.1823 -1.86232
11.1198 12.1695 -1.86116
12.2852 12.2851 -1.86059
-12.2852 -12.2851 1.8605
-11.1198 -12.1694 1.86108
-8.72571 -12.1824 1.86225
-5.46515 -12.2017 1.86333
-1.86385 -12.2114 1.86385
1.86386 -12.2113 1.86386
5.46511 -12.2017 1.86331
8.72569 -12.1824 1.86226
11.1198 -12.1694 1.8611
12.2851 -12.2852 1.86051
-12.1694 -11.1198 1.86113
-11.0368 -11.0368 1.8603
-8.69981 -11.0269 1.86107
-5.45799 -11.0258 1.8619
-1.86242 -11.0265 1.8624
1.86245 -11.0265 1.8624
5.45804 -11.0258 1.86192
8.69982 -11.0268 1.86111
11.0368 -11.0368 1.86032
12.1695 -11.1198 1.86109
-12.1824 -8.72572 1.86225
-11.0269 -8.6998 1.86109
-8.69655 -8.69656 1.8617
-5.45885 -8.6961 1.86267
-1.86307 -8.69616 1.86306
1.8631 -8.69609 1.86306
5.45881 -8.69611 1.86269
8.69653 -8.69653 1.8617
11.0269 -8.69981 1.86107
12.1824 -8.72572 1.86222
-12.2017 -5.46516 1.86327
-11.0258 -5.458 1.8619
-8.69609 -5.45882 1.86265
-5.46036 -5.46035 1.8634
-1.86397 -5.46107 1.86398
1.86395 -5.46103 1.86397
5.46031 -5.46039 1.86343
8.69613 -5.4588 1.86266
11.0257 -5.458 1.86189
12.2017 -5.46516 1.86331
-12.2114 -1.86383 1.86383
-11.0265 -1.86242 1.86238
-8.69615 -1.86307 1.86304
-5.46108 -1.86397 1.86393
-1.86437 -1.86439 1.86437
1.86439 -1.86429 1.86431
5.46107 -1.86399 1.86395
8.69614 -1.86308 1.86301
11.0265 -1.86243 1.86237
12.2114 -1.86383 1.86383
-12.2114 1.86386 1.86386
-11.0265 1.86244 1.86241
-8.69614 1.8631 1.86304
-5.46106 1.86392 1.86397
-1.86438 1.86439 1.86442
1.86441 1.86444 1.86445
5.4611 1.86389 1.86393
8.69618 1.86314 1.86309
11.0265 1.86242 1.86241
12.2114 1.86387 1.86386
-12.2017 5.46516 1.86327
-11.0258 5.45803 1.86189
-8.6961 5.45883 1.86267
-5.46037 5.46032 1.86348
-1.86396 5.46106 1.86391
1.86394 5.46114 1.86391
5.46032 5.46028 1.86354
8.69611 5.45886 1.86262
11.0258 5.45802 1.86188
12.2017 5.46516 1.86331
-12.1824 8.72568 1.86218
-11.0269 8.69979 1.86105
-8.69655 8.69653 1.8617
-5.45885 8.69613 1.86263
-1.86307 8.69611 1.86306
1.86309 8.69623 1.86307
5.4588 8.69604 1.86257
8.69649 8.6966 1.86175
11.0269 8.69978 1.86109
12.1824 8.72567 1.8622
-12.1694 11.1198 1.86107
-11.0368 11.0368 1.86027
-8.69981 11.0269 1.86106
-5.45799 11.0258 1.86188
-1.86243 11.0265 1.86239
1.86243 11.0266 1.86239
5.45801 11.0257 1.86192
8.69979 11.0269 1.86101
11.0368 11.0368 1.86024
12.1694 11.1198 1.86106
-12.2851 12.2851 1.86048
-11.1198 12.1695 1.86109
-8.72572 12.1824 1.86221
-5.46514 12.2017 1.86332
-1.86387 12.2113 1.86385
1.86387 12.2114 1.86385
5.46513 12.2016 1.8633
8.72568 12.1825 1.86218
11.1198 12.1694 1.86106
12.2851 12.2851 1.8605
-12.2756 -12.2756 5.45866
-11.1183 -12.1591 5.45913
-8.72492 -12.1723 5.46169
-5.46406 -12.1919 5.464
-1.86332 -12.2017 5.46514
1.86335 -12.2017 5.46514
5.46408 -12.1919 5.464
8.72492 -12.1723 5.46171
11.1183 -12.1591 5.45912
12.2756 -12.2756 5.45867
-12.1591 -11.1183 5.45913
-11.0357 -11.0357 5.45429
-8.69958 -11.0259 5.45557
-5.4572 -11.0249 5.45715
-1.86196 -11.0258 5.45796
1.86193 -11.0258 5.45796
5.45717 -11.0249 5.45714
8.69955 -11.0259 5.45558
11.0356 -11.0357 5.45429
12.1591 -11.1183 5.45913
-12.1723 -8.72493 5.46172
-11.0259 -8.69959 5.45556
-8.69642 -8.69642 5.45645
-5.45805 -8.69599 5.45813
-1.86266 -8.69608 5.45878
1.86263 -8.69612 5.45878
5.45808 -8.69598 5.4581
8.69642 -8.69644 5.45642
11.0259 -8.69959 5.45559
12.1723 -8.72492 5.46171
-12.1919 -5.46408 5.46399
-11.0249 -5.45721 5.45721
-8.69598 -5.45805 5.45811
-5.45954 -5.45954 5.45945
-1.86351 -5.46035 5.46038
1.86354 -5.46037 5.46038
5.45961 -5.45954 5.45952
8.69603 -5.45805 5.45813
11.025 -5.4572 5.45715
12.1919 -5.46407 5.46401
-12.2017 -1.86333 5.46513
-11.0258 -1.86195 5.45791
-8.69609 -1.86265 5.45877
-5.46036 -1.86348 5.46038
-1.86395 -1.86396 5.46104
1.86394 -1.86399 5.46101
5.46035 -1.86347 5.46038
8.69611 -1.86265 5.45875
11.0257 -1.86195 5.45794
12.2017 -1.86335 5.46513
-12.2017 1.86333 5.46512
-11.0258 1.86191 5.45795
-8.69609 1.86263 5.45876
-5.46037 1.86352 5.46033
-1.86396 1.86394 5.46111
1.86393 1.8639 5.46111
5.4603 1.86354 5.4603
8.69609 1.86263 5.45875
11.0257 1.86192 5.458
12.2017 1.86331 5.46513
-12.1919 5.46405 5.46404
-11.0249 5.45717 5.45713
-8.69596 5.45804 5.45811
-5.45952 5.45961 5.45956
-1.86348 5.46036 5.46029
1.86357 5.4603 5.46035
5.4596 5.45965 5.45958
8.69605 5.45804 5.45809
11.025 5.4572 5.45712
12.192 5.46411 5.46402
-12.1724 8.72491 5.4617
-11.0259 8.69951 5.45555
-8.69643 8.69638 5.45643
-5.45806 8.69601 5.45808
-1.86266 8.69612 5.45876
1.86262 8.69608 5.45879
5.45809 8.69605 5.45802
8.69641 8.69636 5.45645
11.0259 8.69954 5.45556
12.1723 8.72497 5.46171
-12.1591 11.1183 5.45917
-11.0357 11.0356 5.45427
-8.69957 11.0259 5.45556
-5.4572 11.0249 5.45714
-1.86195 11.0258 5.45796
1.86196 11.0257 5.45794
5.45721 11.025 5.45715
8.69954 11.0258 5.45556
11.0357 11.0356 5.45431
12.1591 11.1183 5.45917
-12.2756 12.2756 5.45867
-11.1183 12.1591 5.45915
-8.72492 12.1723 5.46169
-5.46406 12.1919 5.464
-1.86333 12.2017 5.4651
1.86336 12.2017 5.46511
5.4641 12.192 5.46401
8.72497 12.1723 5.46169
11.1183 12.1591 5.45915
12.2757 12.2757 5.45866
-12.2558 -12.2557 8.73094
-11.1167 -12.1381 8.72257
-8.72345 -12.1521 8.72337
-5.46174 -12.1723 8.72486