# vtk DataFile Version 3.0 
Lennard-Jones particle simulation 
ASCII 
DATASET UNSTRUCTURED_GRID 
POINTS 1000 float 
-9.48989 -9.48989 -9.48991
-7.45886 -9.42521 -9.42521
-4.546 -9.43812 -9.43812
-1.08318 -9.45192 -9.45194
2.61086 -9.45837 -9.45837
6.38916 -9.45837 -9.45837
10.0832 -9.45193 -9.45194
13.546 -9.43811 -9.43812
16.4589 -9.42521 -9.42521
18.4899 -9.4899 -9.4899
-9.42521 -7.45886 -9.42521
-7.43073 -7.43072 -9.34209
-4.54128 -7.4275 -9.35329
-1.08355 -7.42827 -9.36761
2.61042 -7.42924 -9.37445
6.38954 -7.42924 -9.37445
10.0836 -7.42828 -9.36762
13.5413 -7.4275 -9.35328
16.4307 -7.43072 -9.34209
18.4252 -7.45886 -9.42521
-9.43812 -4.54601 -9.43812
-7.4275 -4.54128 -9.35328
-4.54195 -4.54194 -9.36296
-1.0856 -4.54343 -9.37647
2.60958 -4.54423 -9.38313
6.39044 -4.54423 -9.38313
10.0856 -4.54343 -9.37647
13.5419 -4.54194 -9.36297
16.4275 -4.54127 -9.35329
18.4381 -4.54599 -9.43813
-9.45193 -1.08318 -9.45193
-7.42828 -1.08356 -9.36762
-4.54344 -1.08558 -9.37651
-1.08755 -1.08755 -9.38947
2.60871 -1.08847 -9.39591
6.39129 -1.08848 -9.39591
10.0876 -1.08755 -9.38951
13.5434 -1.0856 -9.37647
16.4283 -1.08355 -9.3676
18.4519 -1.08319 -9.45193
-9.45837 2.61088 -9.45838
-7.42925 2.61043 -9.37446
-4.54424 2.60959 -9.38312
-1.08849 2.60872 -9.39594
2.6083 2.60831 -9.40219
6.3917 2.6083 -9.40221
10.0885 2.60872 -9.39589
13.5442 2.60958 -9.38314
16.4292 2.61043 -9.37446
18.4583 2.61087 -9.45837
-9.45836 6.38912 -9.45836
-7.42923 6.38957 -9.37444
-4.54424 6.39044 -9.38313
-1.08848 6.39128 -9.39586
2.60832 6.39168 -9.40217
6.3917 6.39169 -9.40216
10.0885 6.39128 -9.3959
13.5443 6.39044 -9.38311
16.4293 6.38957 -9.37445
18.4584 6.38914 -9.45836
-9.45194 10.0832 -9.45195
-7.42829 10.0836 -9.36764
-4.54345 10.0856 -9.3765
-1.08756 10.0875 -9.3895
2.60871 10.0885 -9.39592
6.39126 10.0885 -9.39592
10.0875 10.0875 -9.38948
13.5434 10.0856 -9.37651
16.4283 10.0835 -9.36763
18.4519 10.0832 -9.45194
-9.43812 13.546 -9.43813
-7.4275 13.5413 -9.35328
-4.54195 13.542 -9.36297
-1.0856 13.5434 -9.37651
2.60959 13.5442 -9.38311
6.39044 13.5442 -9.38312
10.0856 13.5434 -9.37652
13.5419 13.5419 -9.36295
16.4275 13.5413 -9.35329
18.4381 13.546 -9.43813
-9.42521 16.4589 -9.42522
-7.43073 16.4307 -9.3421
-4.54128 16.4275 -9.35329
-1.08356 16.4283 -9.36763
2.61044 16.4292 -9.37446
6.38955 16.4292 -9.37446
10.0836 16.4283 -9.36762
13.5413 16.4275 -9.3533
16.4307 16.4307 -9.3421
18.4252 16.4589 -9.42522
-9.4899 18.4899 -9.48991
-7.45887 18.4252 -9.42521
-4.54601 18.4381 -9.43813
-1.08319 18.4519 -9.45194
2.61086 18.4584 -9.45838
6.38915 18.4584 -9.45837
10.0832 18.4519 -9.45194
13.546 18.4381 -9.43813
16.4589 18.4252 -9.42522
18.4899 18.4899 -9.48991
-9.42521 -9.42521 -7.45887
-7.43073 -9.34209 -7.43072
-4.54128 -9.35329 -7.42751
-1.08355 -9.36761 -7.42829
2.61043 -9.37445 -7.42925
6.38953 -9.37445 -7.42924
10.0836 -9.36761 -7.42829
13.5413 -9.35328 -7.4275
16.4307 -9.34209 -7.43074
18.4252 -9.42521 -7.45887
-9.34209 -7.43072 -7.43072
-7.38455 -7.38455 -7.38455
-4.52867 -7.37719 -7.37718
-1.0804 -7.37662 -7.37663
2.61099 -7.37723 -7.37722
6.38903 -7.37722 -7.37722
10.0804 -7.37662 -7.37663
13.5287 -7.37719 -7.37718
16.3846 -7.38455 -7.38455
18.3421 -7.43072 -7.43073
-9.3533 -4.54127 -7.4275
-7.3772 -4.52867 -7.37718
-4.52706 -4.52705 -7.36922
-1.08141 -4.52746 -7.36838
2.61039 -4.52788 -7.36897
6.3896 -4.52787 -7.36897
10.0814 -4.52747 -7.36838
13.5271 -4.52705 -7.36923
16.3772 -4.52868 -7.3772
18.3533 -4.54128 -7.42751
-9.3676 -1.08356 -7.42829
-7.37661 -1.08038 -7.37662
-4.52747 -1.08141 -7.36841
-1.0829 -1.0829 -7.3674
2.6097 -1.08363 -7.36791
6.39031 -1.08363 -7.36791
10.0829 -1.0829 -7.36744
13.5275 -1.0814 -7.36837
16.3766 -1.08039 -7.37662
18.3676 -1.08356 -7.42828
-9.37445 2.61043 -7.42925
-7.37722 2.61099 -7.37723
-4.52787 2.6104 -7.36897
-1.08363 2.60966 -7.36794
2.60931 2.60931 -7.36832
6.39071 2.60932 -7.36833
10.0837 2.60965 -7.3679
13.5279 2.61041 -7.36899
16.3772 2.611 -7.37723
18.3745 2.61043 -7.42924
-9.37447 6.38956 -7.42923
-7.37725 6.38901 -7.37721
-4.5279 6.38959 -7.36898
-1.08364 6.39033 -7.36787
2.60929 6.39071 -7.3683
6.39071 6.3907 -7.36829
10.0837 6.39033 -7.36791
13.5279 6.38958 -7.36896
16.3772 6.389 -7.37723
18.3745 6.38956 -7.42924
-9.3676 10.0836 -7.4283
-7.37661 10.0804 -7.37665
-4.52747 10.0814 -7.36839
-1.08291 10.0829 -7.36744
2.60969 10.0837 -7.36793
6.39032 10.0837 -7.36793
10.0829 10.0829 -7.3674
13.5275 10.0814 -7.36842
16.3766 10.0804 -7.37663
18.3676 10.0836 -7.4283
-9.35329 13.5413 -7.42752
-7.3772 13.5287 -7.37719
-4.52706 13.5271 -7.36924
-1.08141 13.5275 -7.36841
2.61039 13.5279 -7.36897
6.38958 13.5279 -7.36897
10.0814 13.5275 -7.36843
13.5271 13.5271 -7.36922
16.3772 13.5287 -7.3772
18.3533 13.5413 -7.42751
-9.3421 16.4307 -7.43074
-7.38456 16.3846 -7.38457
-4.52868 16.3772 -7.37719
-1.0804 16.3766 -7.37664
2.61099 16.3772 -7.37724
6.38902 16.3772 -7.37723
10.0804 16.3766 -7.37663
13.5287 16.3772 -7.3772
16.3846 16.3846 -7.38456
18.3421 16.4307 -7.43074
-9.42522 18.4252 -7.45887
-7.43074 18.3421 -7.43073
-4.54129 18.3533 -7.42752
-1.08356 18.3676 -7.42829
2.61042 18.3745 -7.42925
6.38953 18.3745 -7.42925
10.0836 18.3676 -7.42829
13.5413 18.3533 -7.42752
16.4307 18.3421 -7.43074
18.4252 18.4252 -7.45887
-9.43813 -9.43813 -4.54602
-7.42751 -9.3533 -4.54128
-4.54196 -9.36295 -4.54194
-1.08561 -9.37651 -4.54345
2.60957 -9.38313 -4.54423
6.39045 -9.38313 -4.54423
10.0856 -9.37649 -4.54344
13.542 -9.36297 -4.54194
16.4275 -9.35329 -4.54129
18.4381 -9.43813 -4.54602
-9.3533 -7.42751 -4.54128
-7.3772 -7.37721 -4.52868
-4.52706 -7.36921 -4.52705
-1.08142 -7.36842 -4.52748
2.61039 -7.36898 -4.52787
6.3896 -7.36898 -4.52787
10.0814 -7.3684 -4.52748
13.5271 -7.36923 -4.52705
16.3772 -7.3772 -4.52868
18.3533 -7.42751 -4.54129
-9.36295 -4.54196 -4.54194
-7.36921 -4.52706 -4.52705
-4.52509 -4.52508 -4.5251
-1.08228 -4.52537 -4.52534
2.60986 -4.52573 -4.52573
6.39013 -4.52573 -4.52573
10.0823 -4.52536 -4.52533
13.5251 -4.5251 -4.52512
16.3692 -4.52705 -4.52706
18.363 -4.54196 -4.54195
-9.37652 -1.08561 -4.54344
-7.36842 -1.08142 -4.52746
-4.52538 -1.08228 -4.52535
-1.0837 -1.08369 -4.52558
2.60915 -1.08442 -4.52594
6.39083 -1.08443 -4.52592
10.0837 -1.08367 -4.52562
13.5253 -1.08231 -4.52533
16.3684 -1.08142 -4.52747
18.3765 -1.08561 -4.54343
-9.38314 2.60957 -4.54425
-7.36899 2.6104 -4.52788
-4.52573 2.60982 -4.52573
-1.08443 2.60915 -4.52596
2.60878 2.60879 -4.52625
6.3912 2.60878 -4.52628
10.0844 2.60915 -4.52592
13.5257 2.60981 -4.52574
16.369 2.61039 -4.52789
18.3831 2.60958 -4.54425
-9.38315 6.39043 -4.54423
-7.369 6.38958 -4.52787
-4.52573 6.39014 -4.52574
-1.08441 6.39083 -4.5259
2.6088 6.39121 -4.52622
6.39121 6.3912 -4.5262
10.0844 6.39086 -4.52594
13.5257 6.39011 -4.52573
16.369 6.38959 -4.52787
18.3831 6.39042 -4.54424
-9.37647 10.0856 -4.54346
-7.36838 10.0814 -4.52748
-4.52535 10.0823 -4.52535
-1.08369 10.0837 -4.5256
2.60913 10.0844 -4.52595
6.39084 10.0844 -4.52596
10.0837 10.0837 -4.52557
13.5253 10.0823 -4.52536
16.3684 10.0814 -4.52749
18.3764 10.0856 -4.54346
-9.36293 13.5419 -4.54197
-7.36919 13.5271 -4.52705
-4.52507 13.5251 -4.5251
-1.08225 13.5253 -4.52537
2.60986 13.5257 -4.52573
6.39014 13.5257 -4.52571
10.0823 13.5253 -4.52538
13.5251 13.5251 -4.52508
16.3692 13.5271 -4.52707
18.363 13.5419 -4.54196
-9.35328 16.4275 -4.5413
-7.37718 16.3772 -4.52869
-4.52704 16.3692 -4.52705
-1.0814 16.3684 -4.52749
2.6104 16.369 -4.52788
6.38958 16.369 -4.52789
10.0814 16.3684 -4.52747
13.5271 16.3692 -4.52708
16.3772 16.3772 -4.52869
18.3533 16.4275 -4.5413
-9.4381 18.4381 -4.54603
-7.42749 18.3533 -4.54129
-4.54194 18.3629 -4.54197
-1.08559 18.3765 -4.54345
2.60958 18.3831 -4.54424
6.39044 18.3831 -4.54424
10.0856 18.3765 -4.54345
13.542 18.3629 -4.54197
16.4275 18.3533 -4.5413
18.4381 18.4381 -4.54603
-9.4519 -9.4519 -1.08321
-7.42825 -9.36758 -1.08356
-4.54341 -9.37648 -1.0856
-1.08754 -9.38946 -1.08756
2.60873 -9.3959 -1.08848
6.39127 -9.3959 -1.08848
10.0875 -9.38947 -1.08757
13.5434 -9.37647 -1.08559
16.4283 -9.36759 -1.08357
18.4519 -9.45191 -1.08321
-9.36758 -7.42825 -1.08357
-7.37659 -7.37659 -1.0804
-4.52745 -7.36839 -1.08145
-1.08289 -7.3674 -1.08293
2.60969 -7.36791 -1.08363
6.3903 -7.36791 -1.08363
10.0829 -7.36741 -1.08293
13.5274 -7.36837 -1.08141
16.3766 -7.3766 -1.0804
18.3676 -7.42825 -1.08355
-9.37649 -4.54341 -1.0856
-7.3684 -4.52745 -1.08141
-4.52536 -4.52535 -1.0823
-1.08369 -4.52556 -1.08366
2.60915 -4.52593 -1.08442
6.39085 -4.52592 -1.08442
10.0837 -4.52557 -1.08365
13.5253 -4.52533 -1.08232
16.3684 -4.52746 -1.08142
18.3765 -4.54342 -1.08562
-9.38946 -1.08753 -1.08757
-7.36739 -1.0829 -1.08291
-4.52556 -1.08367 -1.08369
-1.08506 -1.08506 -1.08508
2.60849 -1.08582 -1.0858
6.39157 -1.08581 -1.08579
10.0851 -1.08508 -1.08511
13.5256 -1.08365 -1.08365
16.3674 -1.08291 -1.08293
18.3895 -1.08754 -1.08756
-9.3959 2.60873 -1.0885
-7.36791 2.60969 -1.08365
-4.52593 2.60915 -1.08443
-1.08582 2.60847 -1.08582
2.60808 2.60807 -1.08651
6.39191 2.60809 -1.08654
10.0858 2.60847 -1.08579
13.5259 2.60916 -1.08445
16.3679 2.60969 -1.08364
18.3959 2.60875 -1.08849
-9.3959 6.39129 -1.08847
-7.36791 6.39029 -1.08363
-4.52594 6.39085 -1.08442
-1.08582 6.39155 -1.08578
2.60807 6.39191 -1.08648
6.3919 6.3919 -1.08647
10.0858 6.39155 -1.08583
13.5259 6.39085 -1.08441
16.3679 6.39029 -1.08363
18.3959 6.39126 -1.08849
-9.38947 10.0875 -1.08756
-7.3674 10.0829 -1.08295
-4.52556 10.0837 -1.08367
-1.08505 10.0851 -1.08509
2.60846 10.0858 -1.08584
6.3916 10.0858 -1.08584
10.0851 10.0851 -1.08506
13.5256 10.0837 -1.08368
16.3674 10.0829 -1.08294
18.3895 10.0875 -1.08757
-9.3765 13.5434 -1.0856
-7.3684 13.5274 -1.08142
-4.52536 13.5253 -1.08233
-1.0837 13.5256 -1.08371
2.60913 13.5259 -1.08442
6.39085 13.526 -1.0844
10.0837 13.5256 -1.08373
13.5253 13.5253 -1.0823
16.3684 13.5274 -1.08144
18.3765 13.5434 -1.08561
-9.36759 16.4283 -1.08357
-7.3766 16.3766 -1.0804
-4.52745 16.3684 -1.08142
-1.0829 16.3674 -1.08294
2.60969 16.3679 -1.08363
6.39029 16.3679 -1.08364
10.0829 16.3674 -1.08292
[...]
POINT_DATA 1000
SCALARS mass float 
LOOKUP_TABLE default 
1
1
1
1
1
1
1
1
1
1
1
1
1
1
1
1
1
1
1
1
1
1
1
1
1
1
1
1
1
1
1
1
1
1
1
1
1
1
1
1
1
1
1
1
1
1
1
1
1
1
1
1
1
1
1
1
1
1
1
1
1
1
1
1
1
1
1
1
1
1
1
1
1
1
1
1
1
1
1
1
1
1
1
1
1
1
1
1
1
1
1
1
1
1
1
1
1
1
1
1
1
1
1
1
1
1
1
1
1
1
1
1
1
1
1
1
1
1
1
1
1
1
1
1
1
1
1
1
1
1
1
1
1
1
1
1
1
1
1
1
1
1
1
1
1
1
1
1
1
1
1
1
1
1
1
1
1
1
1
1
1
1
1
1
1
1
1
1
1
1
1
1
1
1
1
1
1
1
1
1
1
1
1
1
1
1
1
1
1
1
1
1
1
1
1
1
1
1
1
1
1
1
1
1
1
1
1
1
1
1
1
1
1
1
1
1
1
1
1
1
1
1
1
1
1
1
1
1
1
1
1
1
1
1
1
1
1
1
1
1
1
1
1
1
1
1
1
1
1
1
1
1
1
1
1
1
1
1
1
1
1
1
1
1
1
1
1
1
1
1
1
1
1
1
1
1
1
1
1
1
1
1
1
1
1
1
1
1
1
1
1
1
1
1
1
1
1
1
1
1
1
1
1
1
1
1
1
1
1
1
1
1
1
1
1
1
1
1
1
1
1
1
1
1
1
1
1
1
1
1
1
1
1
1
1
1
1
1
1
1
1
1
1
1
1
1
1
1
1
1
1
1
1
1
1
1
1
1
1
1
1
1
1
1
1
1
1
1
1
1
1
1
1
1
1
1
1
1
1
1
1
1
1
1
1
1
1
1
1
1
1
1
1
1
1
1
1
1
1
1
1
1
1
1
1
1
1
1
1
1
1
1
1
1
1
1
1
1
1
1
1
1
1
1
1
1
1
1
1
1
1
1
1
1
1
1
1
1
1
1
1
1
1
1
1
1
1
1
1
1
1
1
1
1
1
1
1
1
1
1
1
1
1
1
1
1
1
1
1
1
1
1
1
1
1
1
1
1
1
1
1
1
1
1
1
1
1
1
1
1
1
1
1
1
1
1
1
1
1
1
1
1
1
1
1
1
1
1
1
1
1
1
1
1
1
1
1
1
1
1
1
1
1
1
1
1
1
1
1
1
1
1
1
1
1
1
1
1
1
1
1
1
1
1
1
1
1
1
1
1
1
1
1
1
1
1
1
1
1
1
1
1
1
1
1
1
1
1
1
1
1
1
1
1
1
1
1
1
1
1
1
1
1
1
1
1
1
1
1
1
1
1
1
1
1
1
1
1
1
1
1
1
1
1
1
1
1
1
1
1
1
1
1
1
1
1
1
1
1
1
1
1
1
1
1
1
1
1
1
1
1
1
1
1
1
1
1
1
1
1
1
1
1
1
1
1
1
1
1
1
1
1
1
1
1
1
1
1
1
1
1
1
1
1
1
1
1
1
1
1
1
1
1
1
1
1
1
1
1
1
1
1
1
1
1
1
1
1
1
1
1
1
1
1
1
1
1
1
1
1
1
1
1
1
1
1
1
1
1
1
1
1
1
1
1
1
1
1
1
1
1
1
1
1
1
1
1
1
1
1
1
1
1
1
1
1
1
1
1
1
1
1
1
1
1
1
1
1
1
1
1
1
1
1
1
1
1
1
1
1
1
1
1
1
1
1
1
1
1
1
1
1
1
1
1
1
1
1
1
1
1
1
1
1
1
1
1
1
1
1
1
1
1
1
1
1
1
1
1
1
1
1
1
1
1
1
1
1
1
1
1
1
1
1
1
1
1
1
1
1
1
1
1
1
1
1
1
1
1
1
1
1
1
1
1
1
1
1
1
1
1
1
1
1
1
1
1
1
1
1
1
1
1
1
1
1
1
1
1
1
1
1
1
1
1
1
1
1
1
1
1
1
1
1
1
1
1
1
1
1
1
1
1
1
1
1
1
1
1
1
1
1
1
1
1
1
1
1
1
1
1
1
1
1
1
1
1
1
1
1
1
1
1
1
1
1
1
1
1
1
1
1
1
1
1
1
1
1
1
1
1
1
1
1
1
1
1
1
1
1
1
1
1
1
1
1
1
1
1
1
1
1
1
1
1
1
1
1
1
1
1
1
1
1
1
1
1
1
1
1
1
1
1
1
1
1
1
1
1
1
1
1
1
1
1
1
1
1
1
1
1
1
1
1
1
1
1
1
1
1
VECTORS velocity float 
-12.0702 -12.0702 -12.0702
-11.3332 -11.9608 -11.9608
-8.77729 -11.9976 -11.9976
-5.46994 -12.0279 -12.028
-1.86354 -12.0409 -12.0409
1.86356 -12.0409 -12.0409
5.46999 -12.0279 -12.028
8.77728 -11.9976 -11.9976
11.3332 -11.9608 -11.9608
12.0702 -12.0702 -12.0702
-11.9608 -11.3332 -11.9608
-11.2981 -11.2981 -11.828
-8.77439 -11.2808 -11.8649
-5.47148 -11.2764 -11.8978
-1.86438 -11.2759 -11.912
1.86433 -11.2759 -11.912
5.47149 -11.2764 -11.8978
8.77439 -11.2808 -11.8649
11.2981 -11.2981 -11.828
11.9608 -11.3332 -11.9608
-11.9976 -8.7773 -11.9976
-11.2808 -8.77439 -11.8649
-8.77069 -8.77068 -11.8977
-5.47282 -8.77049 -11.9286
-1.86514 -8.77075 -11.9421
1.86517 -8.77075 -11.9421
5.47284 -8.77049 -11.9286
8.77067 -8.77068 -11.8977
11.2808 -8.77437 -11.8649
11.9976 -8.77728 -11.9976
-12.0279 -5.46994 -12.028
-11.2764 -5.47149 -11.8978
-8.7705 -5.4728 -11.9286
-5.47467 -5.47467 -11.9581
-1.86611 -5.47561 -11.9713
1.86611 -5.47561 -11.9713
5.47468 -5.47467 -11.9582
8.77049 -5.47282 -11.9286
11.2765 -5.47147 -11.8978
12.028 -5.46996 -12.0279
-12.0409 -1.86351 -12.0409
-11.2759 -1.86437 -11.912
-8.77077 -1.86514 -11.9421
-5.47562 -1.86611 -11.9713
-1.86658 -1.86658 -11.9841
1.86659 -1.86658 -11.9841
5.47557 -1.8661 -11.9712
8.77073 -1.86513 -11.9422
11.2759 -1.86438 -11.912
12.0409 -1.86353 -12.0409
-12.0409 1.86351 -12.0409
-11.2759 1.86438 -11.912
-8.77077 1.86516 -11.9421
-5.47561 1.8661 -11.9712
-1.86655 1.86656 -11.9841
1.86658 1.86657 -11.9841
5.47563 1.8661 -11.9713
8.77079 1.86517 -11.9421
11.2759 1.86438 -11.912
12.0409 1.86354 -12.0409
-12.028 5.47001 -12.028
-11.2765 5.4715 -11.8979
-8.77052 5.47288 -11.9286
-5.47468 5.47464 -11.9582
-1.86611 5.4756 -11.9713
1.86607 5.47559 -11.9713
5.47465 5.47465 -11.9581
8.7705 5.47281 -11.9286
11.2765 5.47147 -11.8979
12.0279 5.46997 -12.028
-11.9976 8.77728 -11.9976
-11.2808 8.77437 -11.8649
-8.77069 8.77068 -11.8977
-5.47282 8.77051 -11.9286
-1.86513 8.77077 -11.9421
1.86517 8.77078 -11.9421
5.47283 8.77051 -11.9286
8.77068 8.77069 -11.8977
11.2808 8.77441 -11.8649
11.9976 8.77729 -11.9976
-11.9608 11.3332 -11.9608
-11.2981 11.2981 -11.8281
-8.7744 11.2808 -11.8649
-5.47149 11.2765 -11.8979
-1.86436 11.2759 -11.912
1.86435 11.2759 -11.912
5.47151 11.2765 -11.8978
8.77437 11.2808 -11.865
11.2981 11.2981 -11.8281
11.9608 11.3332 -11.9608
-12.0702 12.0702 -12.0702
-11.3332 11.9608 -11.9608
-8.77729 11.9976 -11.9976
-5.46996 12.0279 -12.028
-1.86353 12.0409 -12.0409
1.86355 12.0409 -12.0409
5.46997 12.0279 -12.028
8.77729 11.9976 -11.9976
11.3332 11.9608 -11.9608
12.0702 12.0702 -12.0702
-11.9608 -11.9608 -11.3332
-11.2981 -11.828 -11.2981
-8.7744 -11.8649 -11.2808
-5.47148 -11.8978 -11.2764
-1.86438 -11.912 -11.2759
1.86433 -11.912 -11.2759
5.47151 -11.8978 -11.2764
8.77437 -11.8649 -11.2808
11.2981 -11.8281 -11.2981
11.9608 -11.9608 -11.3332
-11.828 -11.2981 -11.2981
-11.2364 -11.2364 -11.2364
-8.76233 -11.2112 -11.2112
-5.46903 -11.2045 -11.2045
-1.86411 -11.2033 -11.2033
1.86413 -11.2033 -11.2033
5.46898 -11.2045 -11.2045
8.76237 -11.2112 -11.2112
11.2364 -11.2364 -11.2364
11.828 -11.2981 -11.2981
-11.8649 -8.77438 -11.2808
-11.2112 -8.76233 -11.2112
-8.75473 -8.75471 -11.1864
-5.4687 -8.75271 -11.1799
-1.86448 -8.75235 -11.1789
1.86446 -8.75234 -11.1789
5.46871 -8.75272 -11.1799
8.75473 -8.75471 -11.1864
11.2112 -8.76233 -11.2112
11.8649 -8.7744 -11.2808
-11.8978 -5.47148 -11.2765
-11.2045 -5.469 -11.2045
-8.75273 -5.4687 -11.1799
-5.46982 -5.46982 -11.1734
-1.86518 -5.47044 -11.1723
1.86519 -5.47044 -11.1723
5.46984 -5.46982 -11.1734
8.75274 -5.46869 -11.1799
11.2045 -5.46901 -11.2045
11.8979 -5.47149 -11.2764
-11.912 -1.86437 -11.2759
-11.2033 -1.86411 -11.2033
-8.75234 -1.86446 -11.1789
-5.47045 -1.86523 -11.1723
-1.86561 -1.86562 -11.1711
1.86563 -1.86559 -11.1711
5.4705 -1.86524 -11.1723
8.75235 -1.86444 -11.1789
11.2033 -1.8641 -11.2033
11.912 -1.86437 -11.2759
-11.912 1.86437 -11.2759
-11.2034 1.8641 -11.2033
-8.75238 1.86445 -11.1789
-5.47046 1.86522 -11.1723
-1.86564 1.86564 -11.1711
1.86563 1.86562 -11.1711
5.47049 1.86522 -11.1723
8.75236 1.86443 -11.1789
11.2033 1.86409 -11.2033
11.912 1.86436 -11.2759
-11.8978 5.47151 -11.2765
-11.2045 5.46903 -11.2045
-8.75274 5.46869 -11.1799
-5.46982 5.46981 -11.1734
-1.86519 5.47049 -11.1723
1.8652 5.4705 -11.1723
5.46984 5.46982 -11.1734
8.75275 5.46871 -11.1799
11.2045 5.46901 -11.2045
11.8979 5.47151 -11.2765
-11.8649 8.77438 -11.2808
-11.2112 8.76236 -11.2112
-8.75472 8.75476 -11.1864
-5.4687 8.75276 -11.1799
-1.86448 8.75236 -11.1789
1.86444 8.75237 -11.1789
5.46869 8.75275 -11.1799
8.75476 8.75476 -11.1864
11.2112 8.76236 -11.2112
11.8649 8.77437 -11.2808
-11.8281 11.2981 -11.2981
-11.2364 11.2364 -11.2364
-8.76233 11.2112 -11.2112
-5.46903 11.2045 -11.2045
-1.86411 11.2033 -11.2033
1.86413 11.2034 -11.2033
5.46898 11.2045 -11.2045
8.76237 11.2112 -11.2112
11.2364 11.2364 -11.2364
11.828 11.2981 -11.2981
-11.9608 11.9608 -11.3332
-11.2981 11.828 -11.2981
-8.77441 11.8649 -11.2808
-5.47149 11.8979 -11.2765
-1.86438 11.912 -11.2759
1.86432 11.912 -11.2759
5.47151 11.8979 -11.2765
8.77438 11.8649 -11.2808
11.2981 11.828 -11.2981
11.9608 11.9608 -11.3332
-11.9976 -11.9976 -8.77731
-11.2808 -11.865 -8.7744
-8.77071 -11.8977 -8.77067
-5.47284 -11.9286 -8.77051
-1.86515 -11.9421 -8.77076
1.86518 -11.9421 -8.77076
5.47285 -11.9286 -8.77051
8.77069 -11.8977 -8.77067
11.2808 -11.8649 -8.77441
11.9976 -11.9976 -8.77731
-11.865 -11.2808 -8.77439
-11.2112 -11.2112 -8.76233
-8.75473 -11.1864 -8.75472
-5.46871 -11.1799 -8.75275
-1.86448 -11.1789 -8.75234
1.86446 -11.1789 -8.75234
5.46872 -11.1799 -8.75273
8.75476 -11.1864 -8.75472
11.2112 -11.2112 -8.76234
11.865 -11.2808 -8.77441
-11.8977 -8.7707 -8.77068
-11.1864 -8.75473 -8.75472
-8.74696 -8.74695 -8.74698
-5.46825 -8.74496 -8.74492
-1.86477 -8.74457 -8.74458
1.86476 -8.74458 -8.74457
5.46824 -8.74494 -8.7449
8.74695 -8.74698 -8.747
11.1864 -8.75472 -8.75473
11.8977 -8.7707 -8.77069
-11.9286 -5.47283 -8.77049
-11.1799 -5.46871 -8.75271
-8.74497 -5.46825 -8.74493
-5.46932 -5.4693 -8.74295
-1.86551 -5.46994 -8.74259
1.86549 -5.46996 -8.74258
5.46932 -5.46927 -8.74301
8.74489 -5.46829 -8.7449
11.1799 -5.46871 -8.75273
11.9286 -5.47283 -8.77049
-11.9422 -1.86516 -8.77078
-11.1789 -1.86446 -8.75236
-8.74458 -1.86482 -8.74458
-5.46996 -1.86552 -8.74263
-1.86592 -1.8659 -8.74219
1.86589 -1.86592 -8.74223
5.46991 -1.8655 -8.74258
8.74453 -1.86483 -8.74459
11.1789 -1.86447 -8.75236
11.9421 -1.86514 -8.77078
-11.9422 1.86516 -8.77077
-11.1789 1.86443 -8.75234
-8.74457 1.86476 -8.74459
-5.46994 1.86548 -8.74255
-1.86589 1.86591 -8.74214
1.86591 1.86589 -8.74212
5.46997 1.86553 -8.7426
8.74457 1.86472 -8.74457
11.1789 1.86445 -8.75233
11.9422 1.86514 -8.77077
-11.9286 5.4728 -8.77053
-11.1799 5.46871 -8.75274
-8.74493 5.46822 -8.74493
-5.4693 5.46929 -8.74298
-1.86553 5.46995 -8.74261
1.86549 5.46993 -8.74262
5.46929 5.46932 -8.74293
8.74483 5.46822 -8.74495
11.1798 5.4687 -8.75274
11.9285 5.4728 -8.77054
-11.8977 8.77069 -8.77071
-11.1863 8.75477 -8.75471
-8.74693 8.74693 -8.74698
-5.46821 8.7449 -8.74495
-1.86477 8.74455 -8.74457
1.86477 8.74455 -8.74455
5.46825 8.74492 -8.74497
8.74694 8.74693 -8.74695
11.1864 8.75475 -8.75473
11.8977 8.77069 -8.7707
-11.8649 11.2807 -8.77442
-11.2112 11.2112 -8.76235
-8.7547 11.1864 -8.75472
-5.46868 11.1798 -8.75274
-1.86446 11.1789 -8.75236
1.86443 11.1789 -8.75236
5.46871 11.1798 -8.75273
8.75476 11.1863 -8.75475
11.2112 11.2112 -8.76235
11.8649 11.2807 -8.77442
-11.9976 11.9976 -8.77732
-11.2807 11.8649 -8.77441
-8.77067 11.8977 -8.7707
-5.4728 11.9285 -8.77052
-1.86514 11.9422 -8.77078
1.86517 11.9421 -8.77077
5.47283 11.9286 -8.77051
8.77069 11.8977 -8.77071
11.2808 11.8649 -8.77442
11.9976 11.9976 -8.77733
-12.0279 -12.0279 -5.46999
-11.2764 -11.8978 -5.47149
-8.77046 -11.9286 -5.47282
-5.47465 -11.9581 -5.47469
-1.86608 -11.9713 -5.47562
1.86609 -11.9713 -5.47562
5.47465 -11.9581 -5.4747
8.77047 -11.9286 -5.47281
11.2764 -11.8978 -5.4715
12.0279 -12.0279 -5.46999
-11.8978 -11.2764 -5.4715
-11.2045 -11.2045 -5.46902
-8.7527 -11.1799 -5.46876
-5.46981 -11.1734 -5.46986
-1.86518 -11.1723 -5.47044
1.86518 -11.1723 -5.47045
5.46978 -11.1734 -5.46985
8.75268 -11.1798 -5.46869
11.2044 -11.2045 -5.46903
11.8978 -11.2764 -5.47148
-11.9286 -8.77046 -5.47281
-11.1799 -8.7527 -5.4687
-8.74494 -8.74493 -5.46828
-5.4693 -8.74292 -5.46926
-1.86551 -8.74259 -5.46994
1.8655 -8.74257 -5.46994
5.46931 -8.74294 -5.46925
8.74493 -8.7449 -5.4683
11.1799 -8.75272 -5.46872
11.9286 -8.77047 -5.47284
-11.9581 -5.47465 -5.4747
-11.1733 -5.46981 -5.46983
-8.74292 -5.46928 -5.4693
-5.47034 -5.47034 -5.47036
-1.86619 -5.47103 -5.471
1.86627 -5.47101 -5.47099
5.47042 -5.47036 -5.47041
8.74298 -5.46925 -5.46924
11.1734 -5.46983 -5.46985
11.9582 -5.47466 -5.47469
-11.9713 -1.86609 -5.47564
-11.1723 -1.86519 -5.47047
-8.74259 -1.86551 -5.46996
-5.47102 -1.86622 -5.47104
-1.86666 -1.86667 -5.47163
1.86664 -1.86665 -5.47167
5.471 -1.86621 -5.47098
8.7426 -1.8655 -5.46998
11.1723 -1.86519 -5.47046
11.9713 -1.86606 -5.47563
-11.9712 1.86611 -5.4756
-11.1723 1.86517 -5.47044
-8.7426 1.86551 -5.46994
-5.47102 1.86625 -5.47097
-1.86668 1.86665 -5.47159
1.86663 1.86662 -5.47158
5.47099 1.86624 -5.47104
8.74259 1.8655 -5.46993
11.1723 1.86516 -5.47045
11.9713 1.86608 -5.47562
-11.9581 5.47465 -5.47469
-11.1734 5.46978 -5.46988
-8.74293 5.46932 -5.46928
-5.47032 5.47041 -5.47038
-1.86623 5.47098 -5.47106
1.86632 5.471 -5.47105
5.47044 5.47038 -5.47034
8.743 5.46933 -5.46929
11.1734 5.46983 -5.46987
11.9582 5.47466 -5.4747
-11.9286 8.77047 -5.47282
-11.1799 8.75268 -5.46871
-8.74495 8.74491 -5.46832
-5.46931 8.74299 -5.46933
-1.86553 8.74261 -5.46994
1.86552 8.74262 -5.46992
5.46931 8.74296 -5.46935
8.74487 8.74492 -5.46827
11.1799 8.75264 -5.46874
11.9286 8.77048 -5.47283
-11.8978 11.2764 -5.4715
-11.2045 11.2045 -5.46903
-8.75271 11.1799 -5.46871
-5.46982 11.1734 -5.46987
-1.86519 11.1723 -5.47045
1.86517 11.1723 -5.47045
5.46978 11.1734 -5.46985
8.75268 11.1799 -5.46876
11.2045 11.2045 -5.46902
11.8978 11.2764 -5.4715
-12.0279 12.0279 -5.47
-11.2764 11.8978 -5.4715
-8.77047 11.9286 -5.47284
-5.47466 11.9582 -5.47468
-1.86608 11.9713 -5.47564
1.86609 11.9713 -5.47563
5.47465 11.9582 -5.47469
8.77048 11.9286 -5.47283
11.2764 11.8978 -5.4715
12.0279 12.0279 -5.46999
-12.0409 -12.0409 -1.86358
-11.2759 -11.912 -1.86438
-8.77076 -11.9421 -1.86516
-5.47561 -11.9712 -1.86613
-1.86657 -11.9841 -1.86659
1.8666 -11.9841 -1.86657
5.47557 -11.9712 -1.86616
8.77075 -11.9421 -1.86517
11.2759 -11.912 -1.8644
12.0409 -12.0409 -1.86357
-11.912 -11.2759 -1.86441
-11.2033 -11.2033 -1.86412
-8.75234 -11.1789 -1.86442
-5.47044 -11.1723 -1.86522
-1.86561 -11.1711 -1.86562
1.86564 -11.1712 -1.86561
5.47049 -11.1723 -1.86524
8.75237 -11.1789 -1.86446
11.2033 -11.2033 -1.86411
11.9121 -11.2759 -1.8644
-11.9421 -8.77077 -1.86516
-11.1789 -8.75235 -1.86446
-8.74454 -8.74456 -1.86483
-5.46992 -8.74259 -1.86546
-1.8659 -8.74218 -1.86593
1.86589 -8.74221 -1.86593
5.46993 -8.74257 -1.86547
8.74449 -8.74457 -1.86485
11.1788 -8.75234 -1.86445
11.9421 -8.77077 -1.86514
-11.9713 -5.47564 -1.86612
-11.1723 -5.47046 -1.86519
-8.74259 -5.46994 -1.8655
-5.47102 -5.471 -1.86627
-1.86667 -5.47163 -1.86665
1.86664 -5.47165 -1.86665
5.47099 -5.47101 -1.8663
8.74262 -5.46996 -1.86546
11.1723 -5.47044 -1.86519
11.9713 -5.47561 -1.86612
-11.9841 -1.86654 -1.86656
-11.1712 -1.8656 -1.86564
-8.74218 -1.86592 -1.86592
-5.47161 -1.86665 -1.86668
-1.86705 -1.86705 -1.86709
1.86706 -1.86708 -1.8671
5.4716 -1.86665 -1.86662
8.74214 -1.86592 -1.86595
11.1711 -1.8656 -1.86563
11.9841 -1.86658 -1.86657
-11.9841 1.86655 -1.86657
-11.1711 1.86564 -1.86561
-8.74218 1.8659 -1.86591
-5.47161 1.86665 -1.86666
-1.86704 1.86706 -1.86699
1.86705 1.86702 -1.86699
5.47161 1.86665 -1.86666
8.74212 1.86589 -1.86592
11.1711 1.86565 -1.86562
11.9841 1.86657 -1.86657
-11.9712 5.47561 -1.86613
-11.1723 5.47048 -1.86525
-8.74258 5.46988 -1.8655
-5.47103 5.471 -1.86626
-1.86666 5.47156 -1.86671
1.86663 5.47156 -1.8667
5.47098 5.47102 -1.86624
8.74262 5.46989 -1.86553
11.1723 5.47047 -1.86528
11.9713 5.47558 -1.86615
-11.9421 8.77069 -1.8652
-11.1789 8.75233 -1.86448
-8.74454 8.7445 -1.86485
-5.46992 8.74262 -1.86551
-1.86589 8.74215 -1.86591
1.8659 8.74214 -1.8659
5.46993 8.74262 -1.86559
8.7445 8.74449 -1.86483
11.1789 8.75235 -1.86446
11.9421 8.7707 -1.86522
-11.912 11.2759 -1.8644
-11.2033 11.2033 -1.86416
-8.75234 11.1789 -1.86449
-5.47044 11.1723 -1.86525
-1.86561 11.1711 -1.86566
1.86564 11.1711 -1.86565
5.47047 11.1724 -1.86524
8.75235 11.1788 -1.86448
11.2033 11.2033 -1.86416
11.912 11.2759 -1.8644
-12.0409 12.0409 -1.86359
-11.2759 11.912 -1.8644
-8.77076 11.9421 -1.86524
-5.47561 11.9713 -1.86614
-1.86658 11.9841 -1.8666
1.86659 11.984 -1.86659
5.4756 11.9713 -1.86615
8.77075 11.9421 -1.86521
11.2759 11.912 -1.8644
12.0409 12.0409 -1.8636
-12.0409 -12.0409 1.86351
-11.2759 -11.912 1.86432
-8.77076 -11.9421 1.86514
-5.47561 -11.9713 1.86608
-1.86657 -11.9841 1.86657
1.86658 -11.9841 1.86658
5.47557 -11.9713 1.86607
8.77074 -11.9421 1.86516
11.2759 -11.912 1.86434
12.0409 -12.0409 1.86352
-11.912 -11.2759 1.86437
-11.2033 -11.2033 1.86409
-8.75236 -11.1789 1.86445
-5.47045 -11.1723 1.86514
-1.86562 -11.1711 1.8656
1.86564 -11.1711 1.8656
5.47049 -11.1723 1.86516
8.75236 -11.1788 1.8645
11.2033 -11.2033 1.86411
11.912 -11.2759 1.86433
-11.9421 -8.77077 1.86514
-11.1789 -8.75235 1.86448
-8.74455 -8.74456 1.8647
-5.46995 -8.74258 1.86553
-1.8659 -8.74218 1.86589
1.86593 -8.74211 1.86589
5.46991 -8.74259 1.86556
8.74452 -8.74453 1.8647
11.1789 -8.75236 1.86446
11.9421 -8.77077 1.86512
-11.9712 -5.47561 1.86603
-11.1723 -5.47045 1.86514
-8.74257 -5.46991 1.86551
-5.47102 -5.47101 1.86614
-1.86667 -5.4716 1.86668
1.86665 -5.47157 1.86667
5.47096 -5.47104 1.86617
8.74261 -5.4699 1.86553
11.1723 -5.47045 1.86513
11.9712 -5.47561 1.86606
-11.9841 -1.86655 1.86655
-11.1711 -1.86562 1.86558
-8.74218 -1.8659 1.86587
-5.47161 -1.86668 1.86663
-1.86704 -1.86706 1.86704
1.86706 -1.86696 1.86698
5.4716 -1.86669 1.86666
8.74217 -1.86591 1.86584
11.1711 -1.86563 1.86557
11.9841 -1.86655 1.86655
-11.9841 1.86658 1.86658
-11.1711 1.86563 1.8656
-8.74217 1.86593 1.86587
-5.47159 1.86663 1.86668
-1.86705 1.86706 1.86709
1.86708 1.86711 1.86712
5.47163 1.86659 1.86663
8.74221 1.86596 1.86592
11.1711 1.86562 1.86561
11.9841 1.86659 1.86658
-11.9712 5.47562 1.86603
-11.1723 5.47048 1.86513
-8.74258 5.46993 1.86553
-5.47102 5.47098 1.86621
-1.86666 5.47159 1.86662
1.86664 5.47166 1.86661
5.47098 5.47094 1.86628
8.74259 5.46996 1.86548
11.1723 5.47048 1.86513
11.9712 5.47562 1.86606
-11.9421 8.77072 1.86508
-11.1789 8.75233 1.86444
-8.74455 8.74453 1.8647
-5.46994 8.74261 1.86549
-1.8659 8.74213 1.86589
1.86592 8.74226 1.8659
5.4699 8.74253 1.86543
8.74449 8.7446 1.86475
11.1789 8.75233 1.86447
11.9421 8.77072 1.86509
-11.912 11.2759 1.8643
-11.2033 11.2033 1.86407
-8.75236 11.1789 1.86445
-5.47045 11.1723 1.86512
-1.86562 11.1711 1.86559
1.86563 11.1712 1.86559
5.47047 11.1722 1.86516
8.75233 11.1789 1.86439
11.2033 11.2033 1.86403
11.912 11.2759 1.8643
-12.0409 12.0409 1.86349
-11.2759 11.912 1.86432
-8.77077 11.9421 1.8651
-5.47559 11.9712 1.86607
-1.86659 11.9841 1.86657
1.86659 11.9842 1.86657
5.47559 11.9712 1.86605
8.77073 11.9422 1.86508
11.2759 11.912 1.86429
12.0409 12.0409 1.86351
-12.0279 -12.0279 5.4699
-11.2764 -11.8978 5.47144
-8.77047 -11.9286 5.47276
-5.47465 -11.9581 5.4746
-1.86608 -11.9712 5.47559
1.8661 -11.9713 5.47559
5.47468 -11.9581 5.47459
8.77047 -11.9286 5.47279
11.2764 -11.8978 5.47143
12.0279 -12.0279 5.46991
-11.8978 -11.2764 5.47144
-11.2045 -11.2045 5.46892
-8.7527 -11.1799 5.46872
-5.46981 -11.1734 5.46976
-1.86519 -11.1723 5.47042
1.86517 -11.1723 5.47041
5.46978 -11.1734 5.46974
8.75268 -11.1799 5.46873
11.2044 -11.2045 5.46893
11.8978 -11.2764 5.47145
-11.9286 -8.77049 5.4728
-11.1799 -8.75272 5.4687
-8.74493 -8.74493 5.46818
-5.46928 -8.74294 5.46936
-1.86552 -8.74256 5.46988
1.8655 -8.74261 5.46988
5.46931 -8.74293 5.46934
8.74493 -8.74494 5.46814
11.1798 -8.75272 5.46873
11.9286 -8.77048 5.47279
-11.9581 -5.47467 5.47459
-11.1734 -5.46982 5.46981
-8.74293 -5.46929 5.46934
-5.47032 -5.47032 5.47024
-1.86625 -5.47101 5.47103
1.86628 -5.47102 5.47103
5.4704 -5.47032 5.47031
8.74298 -5.46929 5.46937
11.1734 -5.46981 5.46976
11.9582 -5.47466 5.4746
-11.9712 -1.86609 5.47558
-11.1723 -1.86518 5.47037
-8.74257 -1.86551 5.46987
-5.47101 -1.86622 5.47104
-1.86666 -1.86666 5.47157
1.86664 -1.8667 5.47154
5.47101 -1.86621 5.47104
8.7426 -1.86551 5.46984
11.1723 -1.86519 5.4704
11.9712 -1.8661 5.47558
-11.9712 1.86609 5.47558
-11.1723 1.86515 5.4704
-8.74258 1.8655 5.46986
-5.47103 1.86625 5.47099
-1.86667 1.86664 5.47164
1.86663 1.8666 5.47164
5.47095 1.86628 5.47096
8.74258 1.86549 5.46985
11.1722 1.86516 5.47045
11.9712 1.86607 5.47558
-11.9581 5.47464 5.47464
-11.1734 5.46978 5.46974
-8.74292 5.46928 5.46934
-5.47031 5.47039 5.47034
-1.86622 5.47102 5.47094
1.8663 5.47095 5.471
5.47039 5.47044 5.47036
8.74301 5.46928 5.46933
11.1734 5.46981 5.46973
11.9582 5.4747 5.47461
-11.9286 8.77046 5.47278
-11.1799 8.75264 5.46869
-8.74493 8.74489 5.46816
-5.46929 8.74296 5.46931
-1.86552 8.74261 5.46986
1.86549 8.74257 5.46989
5.46933 8.743 5.46926
8.74492 8.74486 5.46818
11.1799 8.75266 5.4687
11.9286 8.77052 5.47279
-11.8978 11.2765 5.47148
-11.2045 11.2044 5.46891
-8.7527 11.1799 5.4687
-5.46981 11.1734 5.46975
-1.86519 11.1723 5.47041
1.86519 11.1723 5.4704
5.46982 11.1734 5.46976
8.75266 11.1798 5.4687
11.2045 11.2044 5.46896
11.8978 11.2764 5.47148
-12.0279 12.0279 5.46992
-11.2764 11.8978 5.47146
-8.77047 11.9286 5.47277
-5.47466 11.9582 5.4746
-1.86608 11.9713 5.47556
1.86611 11.9712 5.47556
5.47469 11.9582 5.4746
8.77053 11.9285 5.47277
11.2765 11.8978 5.47146
12.028 12.028 5.46991
-11.9976 -11.9976 8.77729
-11.2807 -11.8649 8.77434
-8.77067 -11.8977 8.77059
-5.47281 -11.9286 8.77042