# vtk DataFile Version 3.0 
Lennard-Jones particle simulation 
ASCII 
DATASET UNSTRUCTURED_GRID 
POINTS 1000 float 
-10.3338 -10.3338 -10.3338
-8.25306 -10.2613 -10.2613
-5.16049 -10.2769 -10.2769
-1.46609 -10.2929 -10.2929
2.48041 -10.3003 -10.3003
6.51961 -10.3003 -10.3003
10.4661 -10.2929 -10.2929
14.1605 -10.2769 -10.2769
17.2531 -10.2613 -10.2613
19.3338 -10.3338 -10.3338
-10.2613 -8.25307 -10.2613
-8.22259 -8.22259 -10.1688
-5.15557 -8.21804 -10.1827
-1.46657 -8.21846 -10.1994
2.47991 -8.21938 -10.2073
6.52005 -8.21937 -10.2073
10.4666 -8.21847 -10.1994
14.1556 -8.21804 -10.1827
17.2226 -8.22258 -10.1688
19.2613 -8.25307 -10.2613
-10.2769 -5.1605 -10.2769
-8.21804 -5.15557 -10.1827
-5.15597 -5.15596 -10.1948
-1.46871 -5.15744 -10.2105
2.47902 -5.15825 -10.2181
6.52101 -5.15825 -10.2181
10.4687 -5.15743 -10.2105
14.156 -5.15596 -10.1948
17.218 -5.15556 -10.1827
19.2769 -5.16048 -10.2769
-10.2929 -1.46609 -10.2929
-8.21847 -1.46658 -10.1994
-5.15744 -1.46869 -10.2106
-1.47079 -1.47079 -10.2256
2.47808 -1.47178 -10.233
6.52191 -1.47178 -10.233
10.4708 -1.47079 -10.2257
14.1574 -1.4687 -10.2105
17.2185 -1.46656 -10.1994
19.2929 -1.4661 -10.2929
-10.3003 2.48043 -10.3003
-8.21939 2.47993 -10.2073
-5.15826 2.47902 -10.2181
-1.47179 2.47809 -10.233
2.47763 2.47764 -10.2402
6.52237 2.47764 -10.2402
10.4718 2.47809 -10.233
14.1582 2.47902 -10.2182
17.2194 2.47992 -10.2073
19.3002 2.48042 -10.3003
-10.3003 6.51957 -10.3003
-8.21937 6.52008 -10.2072
-5.15826 6.521 -10.2181
-1.47178 6.52191 -10.233
2.47766 6.52234 -10.2402
6.52236 6.52235 -10.2402
10.4718 6.52191 -10.233
14.1583 6.521 -10.2181
17.2194 6.52008 -10.2073
19.3003 6.51959 -10.3003
-10.2929 10.4661 -10.2929
-8.21848 10.4666 -10.1994
-5.15746 10.4688 -10.2105
-1.47079 10.4708 -10.2257
2.47808 10.4718 -10.233
6.52188 10.4718 -10.233
10.4708 10.4708 -10.2256
14.1574 10.4687 -10.2106
17.2185 10.4666 -10.1994
19.2929 10.4661 -10.2929
-10.2769 14.1605 -10.2769
-8.21804 14.1556 -10.1827
-5.15597 14.156 -10.1948
-1.46871 14.1574 -10.2106
2.47903 14.1583 -10.2181
6.52101 14.1583 -10.2181
10.4687 14.1574 -10.2106
14.156 14.156 -10.1948
17.218 14.1556 -10.1827
19.2769 14.1605 -10.2769
-10.2613 17.2531 -10.2613
-8.2226 17.2226 -10.1688
-5.15558 17.2181 -10.1827
-1.46658 17.2185 -10.1994
2.47993 17.2194 -10.2073
6.52005 17.2194 -10.2073
10.4666 17.2185 -10.1994
14.1556 17.218 -10.1827
17.2226 17.2226 -10.1688
19.2613 17.2531 -10.2613
-10.3338 19.3338 -10.3338
-8.25307 19.2613 -10.2613
-5.16049 19.2769 -10.2769
-1.4661 19.2929 -10.2929
2.48041 19.3003 -10.3003
6.5196 19.3003 -10.3003
10.4661 19.2929 -10.2929
14.1605 19.2769 -10.2769
17.2531 19.2613 -10.2613
19.3338 19.3338 -10.3338
-10.2613 -10.2613 -8.25308
-8.2226 -10.1688 -8.22259
-5.15558 -10.1827 -8.21805
-1.46657 -10.1994 -8.21848
2.47992 -10.2073 -8.21938
6.52004 -10.2073 -8.21938
10.4666 -10.1994 -8.21848
14.1556 -10.1827 -8.21804
17.2226 -10.1688 -8.22261
19.2613 -10.2613 -8.25308
-10.1688 -8.22259 -8.22259
-8.17224 -8.17224 -8.17224
-5.14215 -8.16298 -8.16297
-1.46325 -8.16189 -8.16189
2.4805 -8.16239 -8.16238
6.51952 -8.16239 -8.16238
10.4632 -8.16189 -8.16189
14.1422 -8.16298 -8.16297
17.1723 -8.17224 -8.17224
19.1688 -8.22259 -8.2226
-10.1827 -5.15556 -8.21804
-8.16299 -5.14215 -8.16297
-5.13999 -5.13997 -8.15316
-1.46424 -5.14024 -8.15181
2.47987 -5.14063 -8.15232
6.52011 -5.14063 -8.15232
10.4643 -5.14025 -8.15181
14.14 -5.13997 -8.15317
17.163 -5.14216 -8.16299
19.1827 -5.15558 -8.21805
-10.1994 -1.46657 -8.21848
-8.16187 -1.46323 -8.16189
-5.14026 -1.46423 -8.15184
-1.46581 -1.4658 -8.15034
2.47913 -1.46657 -8.15075
6.52088 -1.46657 -8.15075
10.4658 -1.4658 -8.15038
14.1403 -1.46423 -8.15181
17.1619 -1.46324 -8.16188
19.1994 -1.46658 -8.21847
-10.2073 2.47992 -8.21939
-8.16238 2.4805 -8.1624
-5.14063 2.47988 -8.15232
-1.46658 2.47909 -8.15078
2.47872 2.47871 -8.15106
6.52131 2.47873 -8.15108
10.4666 2.47908 -8.15074
14.1406 2.4799 -8.15234
17.1624 2.4805 -8.16239
19.2073 2.47992 -8.21938
-10.2073 6.52007 -8.21937
-8.16242 6.5195 -8.16238
-5.14066 6.52011 -8.15233
-1.46659 6.5209 -8.15071
2.47869 6.52131 -8.15105
6.5213 6.5213 -8.15103
10.4666 6.5209 -8.15076
14.1406 6.52009 -8.15231
17.1624 6.51949 -8.16239
19.2073 6.52007 -8.21938
-10.1994 10.4666 -8.2185
-8.16188 10.4633 -8.16191
-5.14026 10.4642 -8.15183
-1.46581 10.4658 -8.15037
2.47912 10.4666 -8.15077
6.52088 10.4666 -8.15078
10.4658 10.4658 -8.15034
14.1403 10.4643 -8.15185
17.1619 10.4632 -8.1619
19.1994 10.4666 -8.21849
-10.1827 14.1556 -8.21806
-8.16299 14.1422 -8.16298
-5.13998 14.14 -8.15317
-1.46423 14.1403 -8.15184
2.47987 14.1406 -8.15231
6.5201 14.1406 -8.15232
10.4642 14.1403 -8.15187
14.14 14.14 -8.15315
17.163 14.1422 -8.163
19.1827 14.1556 -8.21805
-10.1688 17.2226 -8.22261
-8.17225 17.1723 -8.17226
-5.14216 17.163 -8.16298
-1.46326 17.1619 -8.16191
2.48049 17.1624 -8.1624
6.51952 17.1624 -8.1624
10.4632 17.1619 -8.16189
14.1422 17.163 -8.163
17.1723 17.1723 -8.17225
19.1688 17.2226 -8.22261
-10.2613 19.2613 -8.25308
-8.22261 19.1688 -8.2226
-5.15558 19.1827 -8.21806
-1.46658 19.1994 -8.21849
2.47991 19.2073 -8.21939
6.52004 19.2073 -8.21939
10.4666 19.1994 -8.21849
14.1556 19.1827 -8.21806
17.2226 19.1688 -8.22261
19.2613 19.2613 -8.25308
-10.2769 -10.2769 -5.16051
-8.21806 -10.1827 -5.15558
-5.15599 -10.1948 -5.15596
-1.46872 -10.2106 -5.15745
2.47901 -10.2181 -5.15825
6.52101 -10.2181 -5.15825
10.4687 -10.2105 -5.15745
14.156 -10.1948 -5.15596
17.2181 -10.1827 -5.15558
19.2769 -10.2769 -5.1605
-10.1827 -8.21805 -5.15557
-8.163 -8.163 -5.14215
-5.13999 -8.15314 -5.13998
-1.46425 -8.15185 -5.14027
2.47987 -8.15232 -5.14063
6.52011 -8.15232 -5.14063
10.4643 -8.15183 -5.14026
14.14 -8.15317 -5.13998
17.163 -8.16299 -5.14216
19.1828 -8.21805 -5.15558
-10.1948 -5.15598 -5.15596
-8.15314 -5.13999 -5.13998
-5.13745 -5.13745 -5.13747
-1.46507 -5.13759 -5.13756
2.47932 -5.13792 -5.13793
6.52067 -5.13793 -5.13793
10.4651 -5.13758 -5.13755
14.1374 -5.13747 -5.13749
17.1531 -5.13998 -5.13999
19.1948 -5.15598 -5.15597
-10.2106 -1.46872 -5.15744
-8.15186 -1.46425 -5.14024
-5.1376 -1.46508 -5.13757
-1.46657 -1.46655 -5.13766
2.47856 -1.46733 -5.13799
6.52142 -1.46733 -5.13798
10.4666 -1.46653 -5.1377
14.1375 -1.46511 -5.13755
17.1518 -1.46424 -5.14025
19.2105 -1.46872 -5.15744
-10.2182 2.479 -5.15827
-8.15234 2.47988 -5.14064
-5.13793 2.47928 -5.13793
-1.46734 2.47856 -5.13802
2.47816 2.47818 -5.13828
6.52181 2.47816 -5.13831
10.4673 2.47857 -5.13798
14.1379 2.47927 -5.13794
17.1523 2.47988 -5.14064
19.2181 2.47901 -5.15827
-10.2182 6.52099 -5.15826
-8.15234 6.52009 -5.14062
-5.13792 6.52067 -5.13794
-1.46732 6.52141 -5.13796
2.47818 6.52183 -5.13824
6.52183 6.52182 -5.13822
10.4673 6.52145 -5.138
14.1379 6.52064 -5.13792
17.1523 6.52011 -5.14062
19.2182 6.52098 -5.15826
-10.2105 10.4687 -5.15746
-8.15181 10.4642 -5.14027
-5.13757 10.4651 -5.13757
-1.46656 10.4665 -5.13768
2.47854 10.4673 -5.13801
6.52142 10.4673 -5.13801
10.4665 10.4666 -5.13764
14.1375 10.465 -5.13759
17.1518 10.4642 -5.14027
19.2105 10.4687 -5.15747
-10.1948 14.156 -5.15599
-8.15312 14.14 -5.13998
-5.13743 14.1374 -5.13747
-1.46504 14.1375 -5.13759
2.47933 14.1379 -5.13793
6.52068 14.1379 -5.13791
10.4651 14.1376 -5.13761
14.1374 14.1374 -5.13744
17.1532 14.14 -5.13999
19.1948 14.156 -5.15598
-10.1827 17.218 -5.15559
-8.16297 17.163 -5.14217
-5.13997 17.1531 -5.13998
-1.46422 17.1518 -5.14027
2.47988 17.1523 -5.14064
6.52009 17.1523 -5.14064
10.4643 17.1518 -5.14026
14.14 17.1531 -5.14
17.163 17.163 -5.14217
19.1827 17.218 -5.15559
-10.2769 19.2769 -5.16051
-8.21803 19.1827 -5.15559
-5.15596 19.1948 -5.15599
-1.46869 19.2105 -5.15746
2.47902 19.2181 -5.15827
6.52101 19.2181 -5.15826
10.4687 19.2105 -5.15745
14.156 19.1948 -5.15599
17.218 19.1827 -5.15559
19.2769 19.2769 -5.16052
-10.2929 -10.2929 -1.46613
-8.21844 -10.1994 -1.46658
-5.15741 -10.2105 -1.46871
-1.47077 -10.2256 -1.4708
2.47811 -10.233 -1.47178
6.5219 -10.233 -1.47179
10.4708 -10.2256 -1.47081
14.1574 -10.2105 -1.4687
17.2184 -10.1994 -1.46659
19.2929 -10.2929 -1.46612
-10.1994 -8.21844 -1.46659
-8.16185 -8.16185 -1.46325
-5.14023 -8.15182 -1.46428
-1.4658 -8.15034 -1.46584
2.47913 -8.15075 -1.46658
6.52087 -8.15075 -1.46658
10.4658 -8.15034 -1.46583
14.1402 -8.1518 -1.46423
17.1618 -8.16186 -1.46325
19.1994 -8.21844 -1.46657
-10.2105 -5.15741 -1.4687
-8.15183 -5.14023 -1.46424
-5.13758 -5.13757 -1.4651
-1.46655 -5.13763 -1.46652
2.47856 -5.13799 -1.46732
6.52143 -5.13798 -1.46733
10.4666 -5.13765 -1.46651
14.1376 -5.13755 -1.46511
17.1518 -5.14024 -1.46425
19.2106 -5.15742 -1.46873
-10.2256 -1.47077 -1.47081
-8.15032 -1.4658 -1.46581
-5.13763 -1.46654 -1.46655
-1.468 -1.46799 -1.46802
2.47785 -1.4688 -1.46878
6.52221 -1.46879 -1.46877
10.4681 -1.46802 -1.46805
14.1377 -1.46651 -1.4665
17.1504 -1.46581 -1.46583
19.2257 -1.47078 -1.4708
-10.233 2.4781 -1.4718
-8.15075 2.47912 -1.4666
-5.13799 2.47856 -1.46734
-1.4688 2.47783 -1.46881
2.47741 2.4774 -1.46954
6.52257 2.47742 -1.46956
10.4688 2.47783 -1.46877
14.138 2.47857 -1.46736
17.1508 2.47912 -1.46659
19.233 2.47812 -1.4718
-10.233 6.52192 -1.47177
-8.15075 6.52086 -1.46657
-5.13799 6.52144 -1.46733
-1.4688 6.52219 -1.46876
2.4774 6.52258 -1.4695
6.52257 6.52256 -1.46949
10.4688 6.52219 -1.46881
14.138 6.52143 -1.46732
17.1507 6.52086 -1.46658
19.233 6.52189 -1.47179
-10.2256 10.4708 -1.4708
-8.15033 10.4658 -1.46585
-5.13764 10.4666 -1.46654
-1.46798 10.4681 -1.46803
2.47782 10.4688 -1.46883
6.52225 10.4688 -1.46882
10.4681 10.468 -1.468
14.1377 10.4666 -1.46655
17.1504 10.4658 -1.46585
19.2257 10.4708 -1.47081
-10.2106 14.1574 -1.46871
-8.15184 14.1402 -1.46425
-5.13759 14.1376 -1.46513
-1.46656 14.1377 -1.46657
2.47854 14.138 -1.46733
6.52144 14.138 -1.46731
10.4666 14.1377 -1.46659
14.1375 14.1376 -1.46509
17.1518 14.1402 -1.46427
19.2105 14.1574 -1.46872
-10.1994 17.2185 -1.46659
-8.16186 17.1619 -1.46325
-5.14024 17.1518 -1.46424
-1.4658 17.1504 -1.46585
2.47912 17.1507 -1.46658
6.52086 17.1508 -1.46658
10.4658 17.1504 -1.46582
14.1402 17.1518 -1.46429
[...]
POINT_DATA 1000
SCALARS mass float 
LOOKUP_TABLE default 
1
1
1
1
1
1
1
1
1
1
1
1
1
1
1
1
1
1
1
1
1
1
1
1
1
1
1
1
1
1
1
1
1
1
1
1
1
1
1
1
1
1
1
1
1
1
1
1
1
1
1
1
1
1
1
1
1
1
1
1
1
1
1
1
1
1
1
1
1
1
1
1
1
1
1
1
1
1
1
1
1
1
1
1
1
1
1
1
1
1
1
1
1
1
1
1
1
1
1
1
1
1
1
1
1
1
1
1
1
1
1
1
1
1
1
1
1
1
1
1
1
1
1
1
1
1
1
1
1
1
1
1
1
1
1
1
1
1
1
1
1
1
1
1
1
1
1
1
1
1
1
1
1
1
1
1
1
1
1
1
1
1
1
1
1
1
1
1
1
1
1
1
1
1
1
1
1
1
1
1
1
1
1
1
1
1
1
1
1
1
1
1
1
1
1
1
1
1
1
1
1
1
1
1
1
1
1
1
1
1
1
1
1
1
1
1
1
1
1
1
1
1
1
1
1
1
1
1
1
1
1
1
1
1
1
1
1
1
1
1
1
1
1
1
1
1
1
1
1
1
1
1
1
1
1
1
1
1
1
1
1
1
1
1
1
1
1
1
1
1
1
1
1
1
1
1
1
1
1
1
1
1
1
1
1
1
1
1
1
1
1
1
1
1
1
1
1
1
1
1
1
1
1
1
1
1
1
1
1
1
1
1
1
1
1
1
1
1
1
1
1
1
1
1
1
1
1
1
1
1
1
1
1
1
1
1
1
1
1
1
1
1
1
1
1
1
1
1
1
1
1
1
1
1
1
1
1
1
1
1
1
1
1
1
1
1
1
1
1
1
1
1
1
1
1
1
1
1
1
1
1
1
1
1
1
1
1
1
1
1
1
1
1
1
1
1
1
1
1
1
1
1
1
1
1
1
1
1
1
1
1
1
1
1
1
1
1
1
1
1
1
1
1
1
1
1
1
1
1
1
1
1
1
1
1
1
1
1
1
1
1
1
1
1
1
1
1
1
1
1
1
1
1
1
1
1
1
1
1
1
1
1
1
1
1
1
1
1
1
1
1
1
1
1
1
1
1
1
1
1
1
1
1
1
1
1
1
1
1
1
1
1
1
1
1
1
1
1
1
1
1
1
1
1
1
1
1
1
1
1
1
1
1
1
1
1
1
1
1
1
1
1
1
1
1
1
1
1
1
1
1
1
1
1
1
1
1
1
1
1
1
1
1
1
1
1
1
1
1
1
1
1
1
1
1
1
1
1
1
1
1
1
1
1
1
1
1
1
1
1
1
1
1
1
1
1
1
1
1
1
1
1
1
1
1
1
1
1
1
1
1
1
1
1
1
1
1
1
1
1
1
1
1
1
1
1
1
1
1
1
1
1
1
1
1
1
1
1
1
1
1
1
1
1
1
1
1
1
1
1
1
1
1
1
1
1
1
1
1
1
1
1
1
1
1
1
1
1
1
1
1
1
1
1
1
1
1
1
1
1
1
1
1
1
1
1
1
1
1
1
1
1
1
1
1
1
1
1
1
1
1
1
1
1
1
1
1
1
1
1
1
1
1
1
1
1
1
1
1
1
1
1
1
1
1
1
1
1
1
1
1
1
1
1
1
1
1
1
1
1
1
1
1
1
1
1
1
1
1
1
1
1
1
1
1
1
1
1
1
1
1
1
1
1
1
1
1
1
1
1
1
1
1
1
1
1
1
1
1
1
1
1
1
1
1
1
1
1
1
1
1
1
1
1
1
1
1
1
1
1
1
1
1
1
1
1
1
1
1
1
1
1
1
1
1
1
1
1
1
1
1
1
1
1
1
1
1
1
1
1
1
1
1
1
1
1
1
1
1
1
1
1
1
1
1
1
1
1
1
1
1
1
1
1
1
1
1
1
1
1
1
1
1
1
1
1
1
1
1
1
1
1
1
1
1
1
1
1
1
1
1
1
1
1
1
1
1
1
1
1
1
1
1
1
1
1
1
1
1
1
1
1
1
1
1
1
1
1
1
1
1
1
1
1
1
1
1
1
1
1
1
1
1
1
1
1
1
1
1
1
1
1
1
1
1
1
1
1
1
1
1
1
1
1
1
1
1
1
1
1
1
1
1
1
1
1
1
1
1
1
1
1
1
1
1
1
1
1
1
1
1
1
1
1
1
1
1
1
1
1
1
1
1
1
1
1
1
1
1
1
1
1
1
1
1
1
1
1
1
1
1
1
1
1
1
1
1
1
1
1
1
1
1
1
1
1
1
1
1
1
VECTORS velocity float 
-12.0446 -12.0446 -12.0446
-11.3549 -11.9327 -11.9327
-8.77909 -11.9722 -11.9722
-5.47028 -12.0039 -12.0039
-1.86364 -12.0173 -12.0173
1.86365 -12.0173 -12.0173
5.47033 -12.0039 -12.0039
8.77909 -11.9722 -11.9722
11.355 -11.9327 -11.9327
12.0446 -12.0446 -12.0446
-11.9327 -11.3549 -11.9327
-11.3227 -11.3227 -11.7978
-8.77645 -11.3026 -11.8377
-5.47181 -11.2971 -11.8722
-1.86447 -11.2962 -11.8869
1.86442 -11.2962 -11.8869
5.47182 -11.2971 -11.8722
8.77644 -11.3026 -11.8377
11.3227 -11.3227 -11.7978
11.9327 -11.355 -11.9327
-11.9722 -8.7791 -11.9722
-11.3026 -8.77644 -11.8377
-8.77239 -8.77238 -11.873
-5.47308 -8.77211 -11.9052
-1.86521 -8.77235 -11.9193
1.86524 -8.77235 -11.9193
5.4731 -8.77211 -11.9052
8.77237 -8.77238 -11.873
11.3026 -8.77643 -11.8377
11.9722 -8.77908 -11.9722
-12.0039 -5.47028 -12.0039
-11.2971 -5.47182 -11.8722
-8.77212 -5.47306 -11.9052
-5.47492 -5.47491 -11.936
-1.86617 -5.47585 -11.9496
1.86617 -5.47585 -11.9496
5.47492 -5.47491 -11.9361
8.77211 -5.47308 -11.9052
11.2972 -5.4718 -11.8722
12.0039 -5.47029 -12.0039
-12.0173 -1.8636 -12.0173
-11.2962 -1.86445 -11.8869
-8.77237 -1.86521 -11.9193
-5.47586 -1.86617 -11.9496
-1.86665 -1.86664 -11.9629
1.86666 -1.86664 -11.9629
5.47581 -1.86617 -11.9496
8.77232 -1.8652 -11.9193
11.2961 -1.86446 -11.8869
12.0173 -1.86362 -12.0173
-12.0173 1.86361 -12.0173
-11.2962 1.86447 -11.8869
-8.77237 1.86523 -11.9193
-5.47585 1.86617 -11.9495
-1.86662 1.86662 -11.9629
1.86665 1.86663 -11.9628
5.47586 1.86616 -11.9496
8.77239 1.86523 -11.9192
11.2962 1.86447 -11.8869
12.0174 1.86363 -12.0173
-12.0039 5.47034 -12.0039
-11.2971 5.47183 -11.8722
-8.77214 5.47315 -11.9052
-5.47492 5.47488 -11.9361
-1.86618 5.47584 -11.9496
1.86613 5.47583 -11.9496
5.47489 5.47489 -11.936
8.77212 5.47307 -11.9052
11.2971 5.4718 -11.8722
12.0039 5.4703 -12.0039
-11.9722 8.77908 -11.9722
-11.3026 8.77642 -11.8377
-8.77239 8.77238 -11.873
-5.47308 8.77213 -11.9052
-1.8652 8.77237 -11.9192
1.86524 8.77237 -11.9193
5.4731 8.77213 -11.9053
8.77238 8.77239 -11.873
11.3026 8.77646 -11.8377
11.9722 8.77909 -11.9722
-11.9327 11.355 -11.9327
-11.3227 11.3227 -11.7978
-8.77645 11.3026 -11.8377
-5.47182 11.2971 -11.8722
-1.86445 11.2962 -11.8869
1.86443 11.2962 -11.8869
5.47184 11.2971 -11.8722
8.77643 11.3026 -11.8377
11.3227 11.3227 -11.7978
11.9327 11.3549 -11.9327
-12.0446 12.0446 -12.0446
-11.355 11.9327 -11.9327
-8.77909 11.9722 -11.9722
-5.47029 12.0039 -12.0039
-1.86363 12.0173 -12.0173
1.86364 12.0173 -12.0173
5.47031 12.0039 -12.0039
8.77909 11.9722 -11.9722
11.3549 11.9327 -11.9327
12.0446 12.0446 -12.0446
-11.9327 -11.9327 -11.355
-11.3227 -11.7978 -11.3227
-8.77645 -11.8377 -11.3026
-5.47181 -11.8722 -11.2971
-1.86447 -11.8869 -11.2962
1.86442 -11.8869 -11.2962
5.47185 -11.8722 -11.2971
8.77642 -11.8377 -11.3026
11.3227 -11.7978 -11.3228
11.9327 -11.9327 -11.355
-11.7978 -11.3227 -11.3227
-11.2646 -11.2646 -11.2646
-8.76505 -11.236 -11.236
-5.46952 -11.2279 -11.2279
-1.86423 -11.2262 -11.2262
1.86425 -11.2262 -11.2262
5.46947 -11.2279 -11.2279
8.76509 -11.236 -11.236
11.2646 -11.2646 -11.2646
11.7978 -11.3227 -11.3227
-11.8377 -8.77644 -11.3026
-11.236 -8.76505 -11.236
-8.757 -8.75699 -11.2082
-5.4691 -8.7549 -11.2006
-1.86458 -8.75451 -11.1991
1.86456 -8.7545 -11.1991
5.46911 -8.75491 -11.2006
8.757 -8.75698 -11.2082
11.236 -8.76505 -11.236
11.8377 -8.77645 -11.3026
-11.8722 -5.47182 -11.2971
-11.2279 -5.46949 -11.2279
-8.75492 -5.46909 -11.2006
-5.4702 -5.4702 -11.193
-1.86527 -5.47081 -11.1915
1.86529 -5.47081 -11.1915
5.47022 -5.4702 -11.193
8.75492 -5.46909 -11.2005
11.2279 -5.4695 -11.2279
11.8722 -5.47182 -11.2971
-11.8869 -1.86446 -11.2962
-11.2262 -1.86423 -11.2262
-8.7545 -1.86456 -11.1991
-5.47082 -1.86532 -11.1915
-1.8657 -1.86571 -11.1899
1.86573 -1.86569 -11.1899
5.47088 -1.86533 -11.1915
8.75452 -1.86454 -11.1992
11.2262 -1.86422 -11.2262
11.8869 -1.86445 -11.2962
-11.8869 1.86445 -11.2961
-11.2263 1.86422 -11.2262
-8.75454 1.86455 -11.1991
-5.47083 1.86532 -11.1914
-1.86573 1.86573 -11.1899
1.86573 1.86572 -11.1899
5.47086 1.86531 -11.1915
8.75452 1.86453 -11.1991
11.2262 1.86421 -11.2262
11.8869 1.86445 -11.2962
-11.8722 5.47184 -11.2972
-11.2279 5.46952 -11.2279
-8.75492 5.46908 -11.2006
-5.4702 5.47019 -11.193
-1.86528 5.47086 -11.1915
1.86529 5.47087 -11.1915
5.47022 5.4702 -11.193
8.75494 5.46911 -11.2006
11.2279 5.46951 -11.2279
11.8722 5.47185 -11.2971
-11.8377 8.77643 -11.3026
-11.236 8.76508 -11.236
-8.757 8.75703 -11.2083
-5.46909 8.75495 -11.2006
-1.86458 8.75452 -11.1991
1.86454 8.75453 -11.1991
5.46909 8.75494 -11.2006
8.75703 8.75704 -11.2082
11.236 8.76508 -11.236
11.8377 8.77643 -11.3026
-11.7978 11.3227 -11.3228
-11.2646 11.2646 -11.2646
-8.76505 11.236 -11.236
-5.46952 11.228 -11.228
-1.86423 11.2262 -11.2262
1.86424 11.2263 -11.2262
5.46947 11.228 -11.2279
8.76509 11.236 -11.236
11.2646 11.2646 -11.2646
11.7978 11.3227 -11.3228
-11.9327 11.9327 -11.355
-11.3228 11.7978 -11.3228
-8.77646 11.8377 -11.3026
-5.47182 11.8722 -11.2971
-1.86447 11.8869 -11.2962
1.86441 11.8869 -11.2962
5.47184 11.8722 -11.2971
8.77643 11.8377 -11.3026
11.3227 11.7977 -11.3228
11.9327 11.9327 -11.355
-11.9722 -11.9722 -8.77911
-11.3026 -11.8377 -8.77645
-8.77241 -11.873 -8.77237
-5.4731 -11.9052 -8.77213
-1.86522 -11.9193 -8.77236
1.86525 -11.9193 -8.77236
5.47311 -11.9052 -8.77213
8.77239 -11.873 -8.77237
11.3026 -11.8377 -8.77646
11.9722 -11.9722 -8.77911
-11.8377 -11.3026 -8.77645
-11.236 -11.236 -8.76505
-8.757 -11.2082 -8.75699
-5.46911 -11.2006 -8.75493
-1.86458 -11.1991 -8.7545
1.86456 -11.1991 -8.7545
5.46911 -11.2006 -8.75492
8.75704 -11.2082 -8.75699
11.236 -11.236 -8.76506
11.8378 -11.3026 -8.77646
-11.873 -8.7724 -8.77238
-11.2082 -8.757 -8.75699
-8.74883 -8.74882 -8.74884
-5.46855 -8.74676 -8.74671
-1.86485 -8.74635 -8.74636
1.86483 -8.74636 -8.74635
5.46854 -8.74674 -8.7467
8.74882 -8.74885 -8.74887
11.2082 -8.75699 -8.75701
11.873 -8.7724 -8.77239
-11.9052 -5.4731 -8.77211
-11.2006 -5.46911 -8.7549
-8.74676 -5.46855 -8.74673
-5.4696 -5.46958 -8.74469
-1.86558 -5.47022 -8.74431
1.86556 -5.47023 -8.74429
5.4696 -5.46955 -8.74475
8.74669 -5.46859 -8.7467
11.2006 -5.46911 -8.75491
11.9052 -5.4731 -8.77211
-11.9193 -1.86523 -8.77238
-11.1992 -1.86456 -8.75452
-8.74636 -1.86489 -8.74636
-5.47024 -1.86559 -8.74435
-1.86599 -1.86597 -8.74389
1.86595 -1.86599 -8.74393
5.47019 -1.86557 -8.74429
8.74631 -1.8649 -8.74637
11.1991 -1.86457 -8.75452
11.9193 -1.86522 -8.77238
-11.9193 1.86523 -8.77237
-11.1992 1.86453 -8.7545
-8.74635 1.86484 -8.74637
-5.47022 1.86555 -8.74427
-1.86596 1.86597 -8.74385
1.86597 1.86596 -8.74382
5.47025 1.8656 -8.74432
8.74635 1.86479 -8.74636
11.1991 1.86455 -8.75449
11.9193 1.86521 -8.77237
-11.9052 5.47307 -8.77215
-11.2005 5.4691 -8.75493
-8.74673 5.46852 -8.74673
-5.46958 5.46957 -8.74471
-1.8656 5.47023 -8.74433
1.86556 5.47021 -8.74433
5.46957 5.4696 -8.74467
8.74663 5.46852 -8.74675
11.2005 5.46909 -8.75493
11.9051 5.47307 -8.77215
-11.873 8.77239 -8.77241
-11.2082 8.75704 -8.75699
-8.7488 8.7488 -8.74885
-5.46851 8.74669 -8.74675
-1.86484 8.74633 -8.74635
1.86484 8.74633 -8.74633
5.46855 8.74672 -8.74677
8.7488 8.7488 -8.74881
11.2082 8.75703 -8.75701
11.873 8.77239 -8.7724
-11.8377 11.3025 -8.77647
-11.236 11.236 -8.76507
-8.75698 11.2082 -8.75699
-5.46907 11.2005 -8.75493
-1.86456 11.1991 -8.75452
1.86453 11.1991 -8.75452
5.46911 11.2005 -8.75492
8.75704 11.2082 -8.75702
11.236 11.236 -8.76507
11.8377 11.3025 -8.77647
-11.9722 11.9722 -8.77912
-11.3025 11.8377 -8.77647
-8.77237 11.873 -8.7724
-5.47307 11.9052 -8.77214
-1.86521 11.9193 -8.77238
1.86524 11.9193 -8.77237
5.47309 11.9052 -8.77213
8.77239 11.873 -8.77241
11.3026 11.8377 -8.77647
11.9722 11.9722 -8.77913
-12.0039 -12.0039 -5.47032
-11.2971 -11.8721 -5.47183
-8.77208 -11.9052 -5.47309
-5.4749 -11.936 -5.47494
-1.86615 -11.9496 -5.47586
1.86616 -11.9496 -5.47586
5.47489 -11.936 -5.47495
8.77209 -11.9052 -5.47308
11.2971 -11.8722 -5.47183
12.0039 -12.0039 -5.47032
-11.8721 -11.2971 -5.47184
-11.2279 -11.2279 -5.46951
-8.75488 -11.2006 -5.46915
-5.47019 -11.193 -5.47024
-1.86528 -11.1915 -5.47082
1.86527 -11.1915 -5.47082
5.47015 -11.193 -5.47023
8.75486 -11.2005 -5.46909
11.2278 -11.2279 -5.46952
11.8721 -11.2971 -5.47181
-11.9052 -8.77208 -5.47308
-11.2006 -8.75488 -5.4691
-8.74674 -8.74672 -5.46858
-5.46958 -8.74465 -5.46954
-1.86558 -8.74431 -5.47021
1.86557 -8.74429 -5.47022
5.46959 -8.74467 -5.46953
8.74672 -8.7467 -5.46859
11.2006 -8.7549 -5.46911
11.9052 -8.77209 -5.47311
-11.936 -5.4749 -5.47494
-11.1929 -5.47019 -5.47021
-8.74466 -5.46956 -5.46958
-5.4706 -5.4706 -5.47063
-1.86626 -5.47129 -5.47126
1.86633 -5.47127 -5.47125
5.47069 -5.47063 -5.47067
8.74472 -5.46953 -5.46952
11.193 -5.4702 -5.47023
11.9361 -5.4749 -5.47493
-11.9496 -1.86615 -5.47588
-11.1915 -1.86529 -5.47085
-8.74431 -1.86558 -5.47023
-5.47129 -1.86629 -5.4713
-1.86672 -1.86673 -5.47189
1.8667 -1.86671 -5.47192
5.47126 -1.86628 -5.47124
8.74432 -1.86557 -5.47026
11.1915 -1.86528 -5.47083
11.9496 -1.86613 -5.47587
-11.9496 1.86618 -5.47584
-11.1915 1.86526 -5.47081
-8.74431 1.86558 -5.47022
-5.47129 1.86631 -5.47123
-1.86674 1.86672 -5.47185
1.8667 1.86669 -5.47184
5.47126 1.86631 -5.4713
8.74431 1.86557 -5.47021
11.1915 1.86526 -5.47082
11.9496 1.86614 -5.47586
-11.936 5.4749 -5.47493
-11.193 5.47015 -5.47026
-8.74467 5.4696 -5.46956
-5.47059 5.47068 -5.47064
-1.8663 5.47124 -5.47132
1.86638 5.47126 -5.47131
5.4707 5.47065 -5.47061
8.74474 5.46961 -5.46957
11.193 5.47021 -5.47025
11.9361 5.47491 -5.47494
-11.9052 8.77209 -5.47308
-11.2006 8.75487 -5.46911
-8.74675 8.74671 -5.46862
-5.46959 8.74472 -5.46961
-1.8656 8.74433 -5.47022
1.86558 8.74434 -5.4702
5.46959 8.7447 -5.46963
8.74666 8.74672 -5.46856
11.2006 8.75483 -5.46913
11.9052 8.7721 -5.47309
-11.8722 11.2971 -5.47184
-11.2279 11.2279 -5.46952
-8.7549 11.2005 -5.4691
-5.47019 11.193 -5.47025
-1.86528 11.1915 -5.47082
1.86526 11.1915 -5.47083
5.47016 11.193 -5.47022
8.75487 11.2006 -5.46915
11.2279 11.2279 -5.46951
11.8721 11.2971 -5.47183
-12.0039 12.0039 -5.47033
-11.2971 11.8721 -5.47184
-8.77209 11.9052 -5.47311
-5.4749 11.9361 -5.47492
-1.86614 11.9496 -5.47588
1.86616 11.9496 -5.47587
5.4749 11.9361 -5.47493
8.7721 11.9052 -5.47309
11.2971 11.8722 -5.47184
12.0039 12.0039 -5.47032
-12.0173 -12.0173 -1.86367
-11.2962 -11.8869 -1.86446
-8.77236 -11.9193 -1.86523
-5.47585 -11.9496 -1.86619
-1.86663 -11.9629 -1.86665
1.86666 -11.9629 -1.86663
5.47581 -11.9496 -1.86622
8.77235 -11.9193 -1.86524
11.2962 -11.8869 -1.86449
12.0173 -12.0173 -1.86367
-11.8869 -11.2962 -1.8645
-11.2262 -11.2262 -1.86424
-8.7545 -11.1991 -1.86451
-5.47082 -11.1915 -1.86531
-1.8657 -11.1899 -1.86571
1.86574 -11.1899 -1.86571
5.47086 -11.1915 -1.86533
8.75453 -11.1991 -1.86455
11.2262 -11.2262 -1.86423
11.8869 -11.2962 -1.86449
-11.9193 -8.77237 -1.86523
-11.1991 -8.75451 -1.86456
-8.74632 -8.74634 -1.8649
-5.4702 -8.74431 -1.86553
-1.86597 -8.74388 -1.866
1.86596 -8.74391 -1.86599
5.47021 -8.74429 -1.86554
8.74627 -8.74635 -1.86492
11.1991 -8.7545 -1.86454
11.9192 -8.77237 -1.86521
-11.9496 -5.47587 -1.86618
-11.1915 -5.47083 -1.86528
-8.74431 -5.47022 -1.86557
-5.47128 -5.47126 -1.86633
-1.86673 -5.47189 -1.86672
1.8667 -5.4719 -1.86671
5.47126 -5.47127 -1.86636
8.74434 -5.47023 -1.86553
11.1915 -5.47081 -1.86529
11.9496 -5.47585 -1.86619
-11.9629 -1.86661 -1.86662
-11.1899 -1.86569 -1.86573
-8.74388 -1.86599 -1.86598
-5.47187 -1.86672 -1.86675
-1.86711 -1.86711 -1.86715
1.86713 -1.86714 -1.86717
5.47185 -1.86671 -1.86668
8.74384 -1.86599 -1.86601
11.1899 -1.8657 -1.86572
11.9629 -1.86664 -1.86663
-11.9629 1.86661 -1.86663
-11.1899 1.86573 -1.8657
-8.74388 1.86597 -1.86598
-5.47187 1.86672 -1.86672
-1.8671 1.86712 -1.86706
1.86711 1.86709 -1.86705
5.47186 1.86672 -1.86673
8.74383 1.86595 -1.86599
11.1899 1.86574 -1.86571
11.9628 1.86664 -1.86663
-11.9496 5.47585 -1.86619
-11.1915 5.47085 -1.86534
-8.7443 5.47016 -1.86557
-5.47129 5.47126 -1.86632
-1.86672 5.47182 -1.86677
1.8667 5.47182 -1.86676
5.47124 5.47128 -1.86631
8.74434 5.47016 -1.8656
11.1915 5.47084 -1.86537
11.9496 5.47582 -1.86622
-11.9193 8.77229 -1.86527
-11.1991 8.75449 -1.86457
-8.74632 8.74628 -1.86492
-5.4702 8.74434 -1.86558
-1.86596 8.74386 -1.86598
1.86597 8.74385 -1.86597
5.47021 8.74434 -1.86566
8.74628 8.74627 -1.8649
11.1991 8.75452 -1.86456
11.9192 8.7723 -1.86529
-11.8869 11.2962 -1.86448
-11.2262 11.2262 -1.86428
-8.7545 11.1991 -1.86459
-5.47082 11.1915 -1.86535
-1.8657 11.1899 -1.86575
1.86573 11.1898 -1.86574
5.47084 11.1916 -1.86533
8.75451 11.1991 -1.86458
11.2262 11.2262 -1.86428
11.8869 11.2962 -1.86448
-12.0173 12.0173 -1.86368
-11.2961 11.8869 -1.86449
-8.77236 11.9192 -1.86531
-5.47584 11.9496 -1.86621
-1.86664 11.9628 -1.86666
1.86665 11.9628 -1.86665
5.47583 11.9496 -1.86621
8.77234 11.9192 -1.86528
11.2961 11.8869 -1.86448
12.0173 12.0173 -1.86369
-12.0173 -12.0173 1.86361
-11.2962 -11.8869 1.8644
-8.77236 -11.9192 1.86521
-5.47585 -11.9496 1.86615
-1.86664 -11.9629 1.86663
1.86664 -11.9628 1.86664
5.47581 -11.9496 1.86614
8.77233 -11.9192 1.86523
11.2962 -11.8869 1.86443
12.0173 -12.0173 1.86361
-11.8869 -11.2961 1.86445
-11.2262 -11.2262 1.86421
-8.75452 -11.1991 1.86455
-5.47082 -11.1915 1.86523
-1.86571 -11.1899 1.86569
1.86573 -11.1899 1.86569
5.47086 -11.1915 1.86525
8.75452 -11.1991 1.86459
11.2262 -11.2262 1.86423
11.8869 -11.2962 1.86441
-11.9193 -8.77236 1.86521
-11.1991 -8.75451 1.86458
-8.74633 -8.74634 1.86478
-5.47022 -8.7443 1.8656
-1.86597 -8.74389 1.86596
1.86599 -8.74381 1.86596
5.47019 -8.74431 1.86563
8.7463 -8.74631 1.86477
11.1992 -8.75452 1.86456
11.9193 -8.77237 1.86519
-11.9496 -5.47585 1.8661
-11.1915 -5.47082 1.86523
-8.74429 -5.47019 1.86558
-5.47128 -5.47127 1.8662
-1.86673 -5.47186 1.86674
1.86672 -5.47183 1.86673
5.47123 -5.47131 1.86624
8.74433 -5.47018 1.86559
11.1915 -5.47083 1.86522
11.9496 -5.47585 1.86613
-11.9629 -1.86661 1.86661
-11.1899 -1.86571 1.86567
-8.74388 -1.86597 1.86594
-5.47187 -1.86674 1.8667
-1.86711 -1.86713 1.8671
1.86712 -1.86702 1.86705
5.47186 -1.86675 1.86672
8.74387 -1.86598 1.86591
11.1899 -1.86572 1.86566
11.9629 -1.86662 1.86661
-11.9629 1.86664 1.86664
-11.1899 1.86572 1.8657
-8.74387 1.866 1.86594
-5.47184 1.86669 1.86674
-1.86711 1.86713 1.86716
1.86714 1.86717 1.86719
5.47189 1.86666 1.8667
8.74391 1.86603 1.86599
11.1899 1.86571 1.8657
11.9629 1.86665 1.86664
-11.9496 5.47586 1.86609
-11.1915 5.47086 1.86522
-8.7443 5.47021 1.8656
-5.47128 5.47124 1.86628
-1.86673 5.47185 1.86668
1.86671 5.47192 1.86668
5.47124 5.4712 1.86634
8.74431 5.47024 1.86555
11.1915 5.47085 1.86522
11.9496 5.47586 1.86613
-11.9192 8.77232 1.86515
-11.1991 8.75449 1.86453
-8.74633 8.74631 1.86477
-5.47022 8.74433 1.86556
-1.86596 8.74383 1.86596
1.86599 8.74396 1.86597
5.47018 8.74424 1.8655
8.74627 8.74638 1.86482
11.1991 8.75449 1.86457
11.9192 8.77231 1.86517
-11.8869 11.2962 1.86439
-11.2262 11.2262 1.86419
-8.75452 11.1991 1.86455
-5.47082 11.1915 1.86521
-1.86572 11.1899 1.86568
1.86572 11.19 1.86568
5.47084 11.1914 1.86525
8.75449 11.1992 1.86449
11.2262 11.2262 1.86415
11.8869 11.2962 1.86438
-12.0173 12.0173 1.86359
-11.2962 11.8869 1.86441
-8.77237 11.9192 1.86517
-5.47583 11.9496 1.86614
-1.86665 11.9628 1.86663
1.86665 11.963 1.86663
5.47583 11.9495 1.86612
8.77233 11.9193 1.86515
11.2961 11.8869 1.86438
12.0173 12.0173 1.86361
-12.0039 -12.0039 5.47024
-11.2971 -11.8722 5.47177
-8.77209 -11.9052 5.47303
-5.4749 -11.936 5.47484
-1.86614 -11.9496 5.47583
1.86616 -11.9496 5.47583
5.47492 -11.936 5.47483
8.77209 -11.9052 5.47306
11.2971 -11.8721 5.47176
12.0039 -12.0039 5.47025
-11.8721 -11.2971 5.47178
-11.2279 -11.2279 5.46941
-8.75489 -11.2006 5.46911
-5.47018 -11.193 5.47013
-1.86529 -11.1915 5.47079
1.86526 -11.1915 5.47078
5.47016 -11.193 5.47012
8.75487 -11.2006 5.46912
11.2278 -11.2279 5.46942
11.8721 -11.2971 5.47178
-11.9052 -8.77211 5.47306
-11.2006 -8.75491 5.46909
-8.74673 -8.74673 5.46848
-5.46956 -8.74467 5.46964
-1.86559 -8.74428 5.47016
1.86557 -8.74432 5.47015
5.46959 -8.74467 5.46962
8.74673 -8.74674 5.46844
11.2005 -8.7549 5.46912
11.9052 -8.7721 5.47306
-11.936 -5.47491 5.47484
-11.193 -5.47019 5.47019
-8.74467 -5.46957 5.46962
-5.47059 -5.47059 5.47051
-1.86631 -5.47127 5.47129
1.86634 -5.47129 5.4713
5.47066 -5.47059 5.47057
8.74472 -5.46957 5.46964
11.193 -5.47018 5.47014
11.9361 -5.47491 5.47484
-11.9496 -1.86615 5.47582
-11.1915 -1.86528 5.47074
-8.74429 -1.86558 5.47015
-5.47127 -1.86628 5.4713
-1.86672 -1.86672 5.47183
1.8667 -1.86676 5.4718
5.47127 -1.86627 5.4713
8.74432 -1.86558 5.47012
11.1915 -1.86528 5.47077
11.9496 -1.86617 5.47582
-11.9496 1.86615 5.47582
-11.1915 1.86524 5.47077
-8.74429 1.86556 5.47014
-5.47129 1.86632 5.47125
-1.86673 1.8667 5.4719
1.8667 1.86667 5.4719
5.47122 1.86634 5.47122
8.74429 1.86556 5.47013
11.1914 1.86525 5.47083
11.9496 1.86613 5.47582
-11.936 5.47489 5.47488
-11.193 5.47016 5.47012
-8.74465 5.46956 5.46962
-5.47057 5.47066 5.47061
-1.86629 5.47128 5.4712
1.86637 5.47122 5.47127
5.47065 5.4707 5.47063
8.74474 5.46956 5.46961
11.193 5.47019 5.4701
11.9361 5.47495 5.47485
-11.9053 8.77208 5.47305
-11.2006 8.75483 5.46909
-8.74673 8.74669 5.46846
-5.46957 8.7447 5.46959
-1.86559 8.74432 5.47013
1.86556 8.74429 5.47016
5.4696 8.74473 5.46954
8.74671 8.74666 5.46848
11.2006 8.75485 5.4691
11.9052 8.77214 5.47305
-11.8721 11.2972 5.47181
-11.2279 11.2279 5.4694
-8.75488 11.2006 5.4691
-5.47019 11.193 5.47012
-1.86528 11.1915 5.47078
1.86529 11.1914 5.47077
5.4702 11.193 5.47014
8.75485 11.2005 5.46909
11.2279 11.2279 5.46945
11.8722 11.2971 5.47181
-12.0039 12.0039 5.47025
-11.2971 11.8721 5.47179
-8.77209 11.9052 5.47303
-5.4749 11.9361 5.47484
-1.86615 11.9496 5.4758
1.86618 11.9495 5.4758
5.47493 11.9361 5.47485
8.77214 11.9052 5.47304
11.2971 11.8722 5.4718
12.0039 12.0039 5.47024
-11.9722 -11.9722 8.77909
-11.3026 -11.8377 8.7764
-8.77237 -11.873 8.77229
-5.47308 -11.9052 8.77204
-1.8652 -11.9192 8.77231