# vtk DataFile Version 3.0 
Lennard-Jones particle simulation 
ASCII 
DATASET UNSTRUCTURED_GRID 
POINTS 1000 float 
-9.36919 -9.36919 -9.36921
-7.34552 -9.3056 -9.3056
-4.45823 -9.31814 -9.31814
-1.02848 -9.33164 -9.33166
2.62949 -9.33796 -9.33796
6.37052 -9.33796 -9.33796
10.0285 -9.33165 -9.33166
13.4582 -9.31814 -9.31814
16.3455 -9.3056 -9.30561
18.3692 -9.3692 -9.3692
-9.3056 -7.34553 -9.3056
-7.31774 -7.31774 -9.22381
-4.45354 -7.31469 -9.23464
-1.02884 -7.31551 -9.24864
2.62907 -7.31648 -9.25533
6.3709 -7.31648 -9.25533
10.0288 -7.31551 -9.24864
13.4535 -7.31469 -9.23463
16.3177 -7.31774 -9.22381
18.3056 -7.34553 -9.3056
-9.31814 -4.45824 -9.31814
-7.31469 -4.45353 -9.23463
-4.45424 -4.45424 -9.24398
-1.03087 -4.45573 -9.25719
2.62824 -4.45652 -9.2637
6.37179 -4.45652 -9.2637
10.0309 -4.45573 -9.25719
13.4542 -4.45424 -9.24399
16.3147 -4.45352 -9.23464
18.3181 -4.45822 -9.31815
-9.33165 -1.02848 -9.33165
-7.31552 -1.02885 -9.24864
-4.45573 -1.03086 -9.25722
-1.0328 -1.0328 -9.26989
2.62737 -1.03372 -9.27619
6.37262 -1.03372 -9.27619
10.0328 -1.0328 -9.26993
13.4557 -1.03087 -9.25719
16.3155 -1.02883 -9.24862
18.3317 -1.02849 -9.33165
-9.33796 2.62952 -9.33797
-7.31649 2.62908 -9.25534
-4.45653 2.62824 -9.26369
-1.03373 2.62738 -9.27622
2.62696 2.62697 -9.28235
6.37304 2.62697 -9.28236
10.0337 2.62738 -9.27618
13.4565 2.62824 -9.26372
16.3165 2.62907 -9.25534
18.3379 2.6295 -9.33796
-9.33795 6.37049 -9.33795
-7.31647 6.37093 -9.25532
-4.45653 6.37178 -9.26371
-1.03372 6.37262 -9.27615
2.62699 6.37301 -9.28232
6.37303 6.37302 -9.28232
10.0337 6.37262 -9.27619
13.4565 6.37179 -9.26369
16.3165 6.37093 -9.25533
18.338 6.37051 -9.33796
-9.33166 10.0285 -9.33167
-7.31553 10.0288 -9.24866
-4.45575 10.0309 -9.25721
-1.03281 10.0328 -9.26992
2.62737 10.0337 -9.2762
6.3726 10.0337 -9.27621
10.0328 10.0328 -9.26989
13.4557 10.0309 -9.25723
16.3155 10.0288 -9.24865
18.3316 10.0285 -9.33166
-9.31814 13.4582 -9.31815
-7.31469 13.4535 -9.23463
-4.45425 13.4542 -9.24399
-1.03087 13.4557 -9.25723
2.62824 13.4565 -9.26369
6.37179 13.4565 -9.2637
10.0309 13.4557 -9.25724
13.4542 13.4542 -9.24398
16.3147 13.4535 -9.23464
18.3181 13.4582 -9.31815
-9.3056 16.3455 -9.30561
-7.31775 16.3177 -9.22382
-4.45354 16.3147 -9.23464
-1.02884 16.3155 -9.24865
2.62909 16.3165 -9.25534
6.3709 16.3165 -9.25534
10.0289 16.3155 -9.24864
13.4535 16.3147 -9.23465
16.3177 16.3177 -9.22382
18.3056 16.3455 -9.30561
-9.3692 18.3692 -9.36921
-7.34553 18.3056 -9.30561
-4.45823 18.3182 -9.31816
-1.02849 18.3316 -9.33166
2.6295 18.338 -9.33797
6.37052 18.338 -9.33797
10.0285 18.3316 -9.33166
13.4582 18.3181 -9.31815
16.3455 18.3056 -9.30561
18.3692 18.3692 -9.36921
-9.3056 -9.3056 -7.34554
-7.31775 -9.22381 -7.31774
-4.45354 -9.23464 -7.3147
-1.02884 -9.24863 -7.31552
2.62907 -9.25533 -7.31649
6.37089 -9.25533 -7.31648
10.0289 -9.24863 -7.31552
13.4535 -9.23463 -7.3147
16.3177 -9.22381 -7.31776
18.3056 -9.3056 -7.34554
-9.22381 -7.31774 -7.31774
-7.27218 -7.27218 -7.27219
-4.44105 -7.26508 -7.26507
-1.02571 -7.26458 -7.26458
2.62963 -7.26519 -7.26519
6.37039 -7.26519 -7.26519
10.0257 -7.26458 -7.26458
13.4411 -7.26508 -7.26507
16.2722 -7.27219 -7.27219
18.2238 -7.31774 -7.31775
-9.23465 -4.45353 -7.3147
-7.26509 -4.44105 -7.26507
-4.43952 -4.4395 -7.25736
-1.02673 -4.43993 -7.25658
2.62903 -4.44035 -7.25718
6.37095 -4.44035 -7.25718
10.0267 -4.43994 -7.25658
13.4395 -4.4395 -7.25737
16.2651 -4.44106 -7.26508
18.2346 -4.45354 -7.3147
-9.24862 -1.02884 -7.31552
-7.26456 -1.02569 -7.26458
-4.43994 -1.02672 -7.25661
-1.0282 -1.0282 -7.25567
2.62835 -1.02892 -7.25619
6.37166 -1.02892 -7.25619
10.0282 -1.0282 -7.25571
13.4399 -1.02672 -7.25658
16.2646 -1.0257 -7.26457
18.2486 -1.02884 -7.31551
-9.25533 2.62907 -7.31649
-7.26519 2.62963 -7.2652
-4.44035 2.62905 -7.25718
-1.02893 2.62832 -7.25621
2.62797 2.62796 -7.25661
6.37205 2.62798 -7.25662
10.029 2.62831 -7.25617
13.4404 2.62906 -7.25721
16.2652 2.62964 -7.26519
18.2553 2.62908 -7.31648
-9.25535 6.37092 -7.31647
-7.26522 6.37037 -7.26518
-4.44037 6.37095 -7.25719
-1.02893 6.37168 -7.25615
2.62795 6.37205 -7.25659
6.37205 6.37204 -7.25658
10.0289 6.37168 -7.25619
13.4404 6.37093 -7.25717
16.2652 6.37036 -7.26519
18.2553 6.37091 -7.31648
-9.24862 10.0289 -7.31554
-7.26457 10.0257 -7.2646
-4.43995 10.0267 -7.2566
-1.02821 10.0282 -7.2557
2.62834 10.029 -7.25621
6.37167 10.029 -7.25621
10.0282 10.0282 -7.25567
13.44 10.0267 -7.25662
16.2646 10.0257 -7.26459
18.2486 10.0289 -7.31553
-9.23464 13.4535 -7.31471
-7.26509 13.4411 -7.26508
-4.43951 13.4395 -7.25737
-1.02672 13.44 -7.25661
2.62903 13.4404 -7.25718
6.37094 13.4404 -7.25718
10.0267 13.44 -7.25663
13.4395 13.4395 -7.25735
16.2651 13.4411 -7.26509
18.2346 13.4535 -7.3147
-9.22381 16.3177 -7.31776
-7.27219 16.2722 -7.27221
-4.44106 16.2651 -7.26508
-1.02571 16.2646 -7.2646
2.62963 16.2652 -7.2652
6.37038 16.2652 -7.2652
10.0257 16.2646 -7.26458
13.4411 16.2651 -7.26509
16.2722 16.2722 -7.2722
18.2238 16.3177 -7.31776
-9.30561 18.3056 -7.34554
-7.31776 18.2238 -7.31775
-4.45354 18.2346 -7.31471
-1.02884 18.2486 -7.31553
2.62907 18.2553 -7.31649
6.37089 18.2553 -7.31649
10.0289 18.2486 -7.31553
13.4535 18.2346 -7.31471
16.3177 18.2238 -7.31776
18.3056 18.3056 -7.34554
-9.31816 -9.31815 -4.45825
-7.31471 -9.23466 -4.45354
-4.45426 -9.24397 -4.45423
-1.03088 -9.25723 -4.45574
2.62823 -9.26371 -4.45652
6.3718 -9.26371 -4.45653
10.0309 -9.25721 -4.45574
13.4542 -9.244 -4.45423
16.3147 -9.23464 -4.45354
18.3182 -9.31816 -4.45824
-9.23466 -7.31471 -4.45353
-7.26509 -7.2651 -4.44105
-4.43952 -7.25734 -4.43951
-1.02673 -7.25662 -4.43996
2.62903 -7.25719 -4.44035
6.37095 -7.25719 -4.44035
10.0267 -7.2566 -4.43995
13.4395 -7.25737 -4.4395
16.2651 -7.26509 -4.44106
18.2347 -7.3147 -4.45354
-9.24397 -4.45425 -4.45424
-7.25734 -4.43951 -4.43951
-4.43762 -4.43761 -4.43763
-1.0276 -4.43792 -4.43789
2.6285 -4.43828 -4.43829
6.37148 -4.43829 -4.43828
10.0276 -4.43791 -4.43788
13.4376 -4.43763 -4.43765
16.2573 -4.43951 -4.43952
18.244 -4.45425 -4.45425
-9.25723 -1.03088 -4.45573
-7.25662 -1.02673 -4.43993
-4.43793 -1.0276 -4.4379
-1.02901 -1.02899 -4.43815
2.6278 -1.02972 -4.43851
6.37218 -1.02973 -4.4385
10.029 -1.02898 -4.43819
13.4379 -1.02763 -4.43788
16.2566 -1.02673 -4.43994
18.2572 -1.03088 -4.45573
-9.26371 2.62822 -4.45654
-7.2572 2.62905 -4.44036
-4.43829 2.62847 -4.43829
-1.02973 2.6278 -4.43854
2.62744 2.62745 -4.43883
6.37254 2.62744 -4.43886
10.0297 2.62781 -4.4385
13.4382 2.62846 -4.43829
16.2572 2.62904 -4.44036
18.2637 2.62823 -4.45654
-9.26373 6.37178 -4.45653
-7.25721 6.37093 -4.44035
-4.43828 6.37149 -4.43829
-1.02971 6.37217 -4.43848
2.62746 6.37255 -4.4388
6.37255 6.37254 -4.43878
10.0297 6.37221 -4.43852
13.4383 6.37146 -4.43828
16.2572 6.37095 -4.44034
18.2637 6.37177 -4.45653
-9.25719 10.0309 -4.45575
-7.25658 10.0267 -4.43996
-4.4379 10.0276 -4.4379
-1.029 10.029 -4.43817
2.62779 10.0297 -4.43852
6.37218 10.0297 -4.43853
10.029 10.029 -4.43814
13.4378 10.0276 -4.43791
16.2566 10.0267 -4.43996
18.2572 10.0309 -4.45576
-9.24395 13.4542 -4.45426
-7.25733 13.4395 -4.4395
-4.4376 13.4376 -4.43763
-1.02757 13.4379 -4.43792
2.62851 13.4383 -4.43828
6.37149 13.4383 -4.43827
10.0276 13.4379 -4.43793
13.4376 13.4376 -4.43761
16.2574 13.4395 -4.43952
18.244 13.4542 -4.45425
-9.23463 16.3147 -4.45355
-7.26507 16.2651 -4.44107
-4.43949 16.2573 -4.43951
-1.02671 16.2566 -4.43996
2.62905 16.2572 -4.44036
6.37093 16.2572 -4.44036
10.0267 16.2566 -4.43995
13.4395 16.2573 -4.43953
16.2651 16.2651 -4.44107
18.2346 16.3147 -4.45355
-9.31813 18.3181 -4.45825
-7.31468 18.2346 -4.45355
-4.45423 18.244 -4.45426
-1.03086 18.2572 -4.45575
2.62823 18.2637 -4.45654
6.37179 18.2637 -4.45653
10.0309 18.2572 -4.45574
13.4542 18.244 -4.45426
16.3147 18.2346 -4.45355
18.3181 18.3181 -4.45826
-9.33162 -9.33162 -1.02851
-7.31549 -9.24861 -1.02885
-4.45571 -9.2572 -1.03087
-1.03279 -9.26988 -1.03282
2.62739 -9.27619 -1.03373
6.37261 -9.27619 -1.03373
10.0328 -9.26989 -1.03282
13.4557 -9.25718 -1.03087
16.3155 -9.24861 -1.02885
18.3316 -9.33163 -1.02851
-9.2486 -7.31549 -1.02885
-7.26454 -7.26454 -1.02571
-4.43992 -7.25659 -1.02676
-1.0282 -7.25567 -1.02823
2.62835 -7.25619 -1.02892
6.37165 -7.25619 -1.02893
10.0282 -7.25568 -1.02823
13.4399 -7.25657 -1.02672
16.2645 -7.26455 -1.02571
18.2486 -7.31549 -1.02884
-9.2572 -4.45571 -1.03087
-7.2566 -4.43992 -1.02672
-4.43791 -4.4379 -1.02762
-1.029 -4.43813 -1.02897
2.6278 -4.43851 -1.02972
6.37219 -4.4385 -1.02972
10.029 -4.43814 -1.02896
13.4379 -4.43788 -1.02764
16.2566 -4.43993 -1.02674
18.2572 -4.45571 -1.03089
-9.26988 -1.03279 -1.03282
-7.25566 -1.0282 -1.02821
-4.43813 -1.02898 -1.02899
-1.03036 -1.03036 -1.03038
2.62715 -1.03111 -1.03109
6.37291 -1.0311 -1.03108
10.0304 -1.03038 -1.03041
13.4382 -1.02896 -1.02895
16.2557 -1.02821 -1.02823
18.2699 -1.03279 -1.03281
-9.27619 2.62739 -1.03374
-7.25618 2.62834 -1.02895
-4.43851 2.6278 -1.02973
-1.03111 2.62713 -1.03111
2.62675 2.62674 -1.0318
6.37324 2.62675 -1.03182
10.0311 2.62713 -1.03108
13.4385 2.62781 -1.02975
16.2562 2.62834 -1.02894
18.2762 2.62741 -1.03374
-9.27619 6.37263 -1.03372
-7.25619 6.37164 -1.02892
-4.43851 6.37219 -1.02972
-1.03111 6.37289 -1.03107
2.62673 6.37325 -1.03177
6.37323 6.37323 -1.03176
10.0311 6.37288 -1.03112
13.4385 6.37219 -1.02971
16.2562 6.37164 -1.02893
18.2762 6.3726 -1.03373
-9.26989 10.0328 -1.03281
-7.25567 10.0282 -1.02825
-4.43813 10.029 -1.02898
-1.03035 10.0304 -1.03039
2.62713 10.0311 -1.03113
6.37294 10.0311 -1.03113
10.0304 10.0304 -1.03036
13.4382 10.029 -1.02899
16.2557 10.0282 -1.02824
18.2699 10.0328 -1.03282
-9.25722 13.4557 -1.03087
-7.2566 13.4399 -1.02673
-4.43792 13.4379 -1.02765
-1.02901 13.4382 -1.02901
2.62779 13.4385 -1.02972
6.3722 13.4385 -1.0297
10.029 13.4382 -1.02903
13.4379 13.4379 -1.02761
16.2566 13.4399 -1.02675
18.2572 13.4557 -1.03088
-9.24861 16.3155 -1.02886
-7.26455 16.2645 -1.02571
-4.43993 16.2566 -1.02673
-1.0282 16.2557 -1.02824
2.62834 16.2562 -1.02893
6.37164 16.2562 -1.02893
10.0282 16.2557 -1.02822
[...]
POINT_DATA 1000
SCALARS mass float 
LOOKUP_TABLE default 
1
1
1
1
1
1
1
1
1
1
1
1
1
1
1
1
1
1
1
1
1
1
1
1
1
1
1
1
1
1
1
1
1
1
1
1
1
1
1
1
1
1
1
1
1
1
1
1
1
1
1
1
1
1
1
1
1
1
1
1
1
1
1
1
1
1
1
1
1
1
1
1
1
1
1
1
1
1
1
1
1
1
1
1
1
1
1
1
1
1
1
1
1
1
1
1
1
1
1
1
1
1
1
1
1
1
1
1
1
1
1
1
1
1
1
1
1
1
1
1
1
1
1
1
1
1
1
1
1
1
1
1
1
1
1
1
1
1
1
1
1
1
1
1
1
1
1
1
1
1
1
1
1
1
1
1
1
1
1
1
1
1
1
1
1
1
1
1
1
1
1
1
1
1
1
1
1
1
1
1
1
1
1
1
1
1
1
1
1
1
1
1
1
1
1
1
1
1
1
1
1
1
1
1
1
1
1
1
1
1
1
1
1
1
1
1
1
1
1
1
1
1
1
1
1
1
1
1
1
1
1
1
1
1
1
1
1
1
1
1
1
1
1
1
1
1
1
1
1
1
1
1
1
1
1
1
1
1
1
1
1
1
1
1
1
1
1
1
1
1
1
1
1
1
1
1
1
1
1
1
1
1
1
1
1
1
1
1
1
1
1
1
1
1
1
1
1
1
1
1
1
1
1
1
1
1
1
1
1
1
1
1
1
1
1
1
1
1
1
1
1
1
1
1
1
1
1
1
1
1
1
1
1
1
1
1
1
1
1
1
1
1
1
1
1
1
1
1
1
1
1
1
1
1
1
1
1
1
1
1
1
1
1
1
1
1
1
1
1
1
1
1
1
1
1
1
1
1
1
1
1
1
1
1
1
1
1
1
1
1
1
1
1
1
1
1
1
1
1
1
1
1
1
1
1
1
1
1
1
1
1
1
1
1
1
1
1
1
1
1
1
1
1
1
1
1
1
1
1
1
1
1
1
1
1
1
1
1
1
1
1
1
1
1
1
1
1
1
1
1
1
1
1
1
1
1
1
1
1
1
1
1
1
1
1
1
1
1
1
1
1
1
1
1
1
1
1
1
1
1
1
1
1
1
1
1
1
1
1
1
1
1
1
1
1
1
1
1
1
1
1
1
1
1
1
1
1
1
1
1
1
1
1
1
1
1
1
1
1
1
1
1
1
1
1
1
1
1
1
1
1
1
1
1
1
1
1
1
1
1
1
1
1
1
1
1
1
1
1
1
1
1
1
1
1
1
1
1
1
1
1
1
1
1
1
1
1
1
1
1
1
1
1
1
1
1
1
1
1
1
1
1
1
1
1
1
1
1
1
1
1
1
1
1
1
1
1
1
1
1
1
1
1
1
1
1
1
1
1
1
1
1
1
1
1
1
1
1
1
1
1
1
1
1
1
1
1
1
1
1
1
1
1
1
1
1
1
1
1
1
1
1
1
1
1
1
1
1
1
1
1
1
1
1
1
1
1
1
1
1
1
1
1
1
1
1
1
1
1
1
1
1
1
1
1
1
1
1
1
1
1
1
1
1
1
1
1
1
1
1
1
1
1
1
1
1
1
1
1
1
1
1
1
1
1
1
1
1
1
1
1
1
1
1
1
1
1
1
1
1
1
1
1
1
1
1
1
1
1
1
1
1
1
1
1
1
1
1
1
1
1
1
1
1
1
1
1
1
1
1
1
1
1
1
1
1
1
1
1
1
1
1
1
1
1
1
1
1
1
1
1
1
1
1
1
1
1
1
1
1
1
1
1
1
1
1
1
1
1
1
1
1
1
1
1
1
1
1
1
1
1
1
1
1
1
1
1
1
1
1
1
1
1
1
1
1
1
1
1
1
1
1
1
1
1
1
1
1
1
1
1
1
1
1
1
1
1
1
1
1
1
1
1
1
1
1
1
1
1
1
1
1
1
1
1
1
1
1
1
1
1
1
1
1
1
1
1
1
1
1
1
1
1
1
1
1
1
1
1
1
1
1
1
1
1
1
1
1
1
1
1
1
1
1
1
1
1
1
1
1
1
1
1
1
1
1
1
1
1
1
1
1
1
1
1
1
1
1
1
1
1
1
1
1
1
1
1
1
1
1
1
1
1
1
1
1
1
1
1
1
1
1
1
1
1
1
1
1
1
1
1
1
1
1
1
1
1
1
1
1
1
1
1
1
1
1
1
1
1
1
1
1
1
1
1
1
1
1
1
1
1
1
1
1
1
1
1
1
1
1
1
1
1
1
1
1
1
1
1
1
VECTORS velocity float 
-12.0742 -12.0742 -12.0742
-11.3298 -11.9652 -11.9652
-8.77697 -12.0015 -12.0016
-5.46988 -12.0317 -12.0317
-1.86353 -12.0446 -12.0446
1.86354 -12.0446 -12.0446
5.46993 -12.0317 -12.0317
8.77697 -12.0015 -12.0015
11.3298 -11.9652 -11.9652
12.0742 -12.0742 -12.0742
-11.9652 -11.3298 -11.9652
-11.2944 -11.2944 -11.8327
-8.77403 -11.2774 -11.8691
-5.47142 -11.2733 -11.9018
-1.86437 -11.2728 -11.9159
1.86432 -11.2728 -11.9159
5.47143 -11.2733 -11.9018
8.77402 -11.2774 -11.8691
11.2944 -11.2944 -11.8327
11.9652 -11.3298 -11.9652
-12.0015 -8.77698 -12.0015
-11.2774 -8.77403 -11.8691
-8.77038 -8.77038 -11.9016
-5.47277 -8.7702 -11.9322
-1.86512 -8.77047 -11.9457
1.86516 -8.77047 -11.9457
5.47279 -8.7702 -11.9322
8.77037 -8.77038 -11.9016
11.2774 -8.77401 -11.8691
12.0016 -8.77696 -12.0016
-12.0317 -5.46988 -12.0317
-11.2733 -5.47143 -11.9018
-8.77021 -5.47275 -11.9322
-5.47463 -5.47462 -11.9616
-1.8661 -5.47556 -11.9746
1.8661 -5.47556 -11.9746
5.47463 -5.47463 -11.9617
8.7702 -5.47277 -11.9322
11.2733 -5.47141 -11.9018
12.0317 -5.4699 -12.0317
-12.0446 -1.86349 -12.0446
-11.2728 -1.86435 -11.9159
-8.77049 -1.86512 -11.9457
-5.47558 -1.86609 -11.9747
-1.86657 -1.86657 -11.9874
1.86658 -1.86657 -11.9875
5.47553 -1.86609 -11.9746
8.77044 -1.86512 -11.9457
11.2728 -1.86436 -11.9159
12.0446 -1.86351 -12.0446
-12.0446 1.86349 -12.0446
-11.2728 1.86436 -11.9159
-8.77048 1.86515 -11.9457
-5.47557 1.86609 -11.9746
-1.86654 1.86655 -11.9874
1.86657 1.86656 -11.9874
5.47558 1.86609 -11.9746
8.7705 1.86515 -11.9457
11.2728 1.86437 -11.9159
12.0446 1.86352 -12.0446
-12.0317 5.46995 -12.0317
-11.2733 5.47144 -11.9019
-8.77023 5.47283 -11.9322
-5.47463 5.47459 -11.9616
-1.8661 5.47555 -11.9747
1.86606 5.47554 -11.9747
5.4746 5.4746 -11.9616
8.77021 5.47276 -11.9323
11.2733 5.47141 -11.9018
12.0317 5.46991 -12.0317
-12.0015 8.77696 -12.0016
-11.2774 8.774 -11.8691
-8.77039 8.77038 -11.9016
-5.47277 8.77022 -11.9323
-1.86511 8.77049 -11.9457
1.86516 8.77049 -11.9457
5.47278 8.77022 -11.9323
8.77037 8.77038 -11.9016
11.2774 8.77405 -11.8691
12.0016 8.77698 -12.0016
-11.9652 11.3299 -11.9652
-11.2944 11.2944 -11.8327
-8.77404 11.2774 -11.8691
-5.47143 11.2733 -11.9018
-1.86434 11.2728 -11.9159
1.86433 11.2728 -11.9159
5.47145 11.2733 -11.9018
8.77401 11.2774 -11.8692
11.2944 11.2944 -11.8327
11.9652 11.3298 -11.9652
-12.0742 12.0742 -12.0742
-11.3298 11.9652 -11.9652
-8.77698 12.0016 -12.0016
-5.4699 12.0317 -12.0317
-1.86352 12.0446 -12.0446
1.86353 12.0446 -12.0446
5.46991 12.0317 -12.0317
8.77698 12.0015 -12.0016
11.3298 11.9652 -11.9652
12.0742 12.0742 -12.0742
-11.9652 -11.9652 -11.3298
-11.2944 -11.8327 -11.2944
-8.77404 -11.8691 -11.2774
-5.47142 -11.9018 -11.2733
-1.86436 -11.9159 -11.2728
1.86432 -11.9159 -11.2728
5.47145 -11.9018 -11.2733
8.77401 -11.8691 -11.2774
11.2944 -11.8327 -11.2944
11.9652 -11.9652 -11.3298
-11.8327 -11.2944 -11.2944
-11.2322 -11.2322 -11.2322
-8.76186 -11.2075 -11.2075
-5.46894 -11.2009 -11.201
-1.86409 -11.1998 -11.1998
1.86411 -11.1998 -11.1998
5.46889 -11.2009 -11.201
8.7619 -11.2075 -11.2075
11.2322 -11.2322 -11.2322
11.8327 -11.2944 -11.2944
-11.8692 -8.77402 -11.2774
-11.2075 -8.76186 -11.2075
-8.75433 -8.75432 -11.183
-5.46863 -8.75233 -11.1767
-1.86446 -8.75197 -11.1758
1.86444 -8.75196 -11.1758
5.46864 -8.75234 -11.1767
8.75433 -8.75431 -11.1831
11.2075 -8.76187 -11.2075
11.8691 -8.77404 -11.2774
-11.9018 -5.47142 -11.2733
-11.2009 -5.46891 -11.2009
-8.75235 -5.46863 -11.1767
-5.46975 -5.46975 -11.1703
-1.86516 -5.47038 -11.1694
1.86518 -5.47038 -11.1694
5.46978 -5.46975 -11.1704
8.75236 -5.46862 -11.1767
11.2009 -5.46893 -11.2009
11.9018 -5.47143 -11.2733
-11.9159 -1.86436 -11.2728
-11.1998 -1.86409 -11.1998
-8.75196 -1.86445 -11.1758
-5.47038 -1.86521 -11.1694
-1.86559 -1.8656 -11.1682
1.86562 -1.86558 -11.1683
5.47044 -1.86522 -11.1693
8.75198 -1.86443 -11.1758
11.1998 -1.86408 -11.1998
11.9159 -1.86435 -11.2728
-11.9159 1.86435 -11.2728
-11.1999 1.86408 -11.1998
-8.752 1.86443 -11.1758
-5.47039 1.86521 -11.1693
-1.86562 1.86562 -11.1682
1.86562 1.86561 -11.1682
5.47042 1.8652 -11.1694
8.75198 1.86441 -11.1758
11.1998 1.86407 -11.1998
11.9159 1.86435 -11.2728
-11.9018 5.47145 -11.2733
-11.2009 5.46894 -11.201
-8.75235 5.46862 -11.1767
-5.46976 5.46975 -11.1704
-1.86517 5.47042 -11.1694
1.86518 5.47043 -11.1694
5.46978 5.46975 -11.1703
8.75237 5.46864 -11.1767
11.201 5.46893 -11.201
11.9018 5.47145 -11.2733
-11.8691 8.77402 -11.2774
-11.2075 8.76189 -11.2075
-8.75432 8.75436 -11.1831
-5.46863 8.75238 -11.1767
-1.86446 8.75198 -11.1758
1.86442 8.75199 -11.1758
5.46862 8.75237 -11.1768
8.75436 8.75437 -11.183
11.2074 8.76189 -11.2075
11.8692 8.77401 -11.2774
-11.8327 11.2944 -11.2944
-11.2322 11.2322 -11.2322
-8.76186 11.2074 -11.2075
-5.46895 11.201 -11.201
-1.86409 11.1998 -11.1999
1.8641 11.1999 -11.1999
5.46889 11.201 -11.201
8.76191 11.2075 -11.2075
11.2322 11.2322 -11.2322
11.8327 11.2944 -11.2944
-11.9652 11.9652 -11.3298
-11.2944 11.8327 -11.2944
-8.77405 11.8691 -11.2775
-5.47143 11.9018 -11.2733
-1.86437 11.9159 -11.2728
1.86431 11.9159 -11.2728
5.47145 11.9018 -11.2733
8.77402 11.8692 -11.2775
11.2944 11.8327 -11.2944
11.9652 11.9652 -11.3298
-12.0016 -12.0016 -8.77699
-11.2774 -11.8692 -8.77404
-8.7704 -11.9016 -8.77037
-5.47279 -11.9323 -8.77022
-1.86513 -11.9457 -8.77047
1.86517 -11.9457 -8.77048
5.4728 -11.9322 -8.77022
8.77039 -11.9016 -8.77036
11.2775 -11.8692 -8.77404
12.0016 -12.0016 -8.77699
-11.8692 -11.2774 -8.77403
-11.2075 -11.2075 -8.76186
-8.75433 -11.183 -8.75432
-5.46864 -11.1768 -8.75237
-1.86446 -11.1758 -8.75196
1.86444 -11.1758 -8.75196
5.46865 -11.1767 -8.75235
8.75437 -11.1831 -8.75432
11.2075 -11.2075 -8.76187
11.8692 -11.2774 -8.77405
-11.9016 -8.7704 -8.77038
-11.183 -8.75433 -8.75432
-8.74663 -8.74662 -8.74665
-5.4682 -8.74464 -8.7446
-1.86476 -8.74426 -8.74426
1.86474 -8.74426 -8.74426
5.46819 -8.74463 -8.74458
8.74662 -8.74665 -8.74667
11.183 -8.75432 -8.75434
11.9016 -8.7704 -8.77039
-11.9323 -5.47278 -8.7702
-11.1768 -5.46864 -8.75233
-8.74465 -5.4682 -8.74461
-5.46927 -5.46925 -8.74265
-1.8655 -5.46989 -8.74229
1.86547 -5.46991 -8.74227
5.46927 -5.46922 -8.7427
8.74457 -5.46824 -8.74458
11.1767 -5.46864 -8.75235
11.9322 -5.47278 -8.7702
-11.9457 -1.86515 -8.7705
-11.1758 -1.86445 -8.75198
-8.74426 -1.86481 -8.74426
-5.46991 -1.8655 -8.74232
-1.86591 -1.86589 -8.74189
1.86587 -1.86591 -8.74193
5.46986 -1.86549 -8.74227
8.74421 -1.86482 -8.74427
11.1758 -1.86445 -8.75198
11.9457 -1.86513 -8.7705
-11.9457 1.86514 -8.77048
-11.1758 1.86441 -8.75196
-8.74425 1.86475 -8.74427
-5.46989 1.86546 -8.74225
-1.86588 1.86589 -8.74184
1.86589 1.86588 -8.74182
5.46992 1.86552 -8.7423
8.74425 1.86471 -8.74426
11.1758 1.86444 -8.75195
11.9457 1.86513 -8.77048
-11.9322 5.47275 -8.77024
-11.1767 5.46864 -8.75236
-8.74461 5.46817 -8.74461
-5.46925 5.46923 -8.74267
-1.86552 5.4699 -8.7423
1.86548 5.46988 -8.74231
5.46924 5.46927 -8.74263
8.74452 5.46817 -8.74463
11.1767 5.46863 -8.75236
11.9321 5.47275 -8.77025
-11.9015 8.77038 -8.7704
-11.183 8.75437 -8.75432
-8.7466 8.7466 -8.74665
-5.46816 8.74458 -8.74463
-1.86475 8.74423 -8.74426
1.86475 8.74423 -8.74423
5.4682 8.74461 -8.74466
8.7466 8.7466 -8.74661
11.183 8.75436 -8.75434
11.9016 8.77038 -8.7704
-11.8691 11.2774 -8.77406
-11.2075 11.2075 -8.76188
-8.7543 11.183 -8.75432
-5.46861 11.1767 -8.75236
-1.86445 11.1758 -8.75198
1.86441 11.1758 -8.75198
5.46865 11.1767 -8.75235
8.75437 11.183 -8.75435
11.2074 11.2075 -8.76188
11.8692 11.2774 -8.77406
-12.0015 12.0015 -8.77701
-11.2774 11.8692 -8.77405
-8.77037 11.9016 -8.7704
-5.47275 11.9322 -8.77023
-1.86513 11.9457 -8.77049
1.86516 11.9457 -8.77049
5.47278 11.9322 -8.77022
8.77039 11.9016 -8.77041
11.2774 11.8691 -8.77406
12.0015 12.0015 -8.77701
-12.0317 -12.0317 -5.46993
-11.2732 -11.9018 -5.47143
-8.77017 -11.9322 -5.47277
-5.47461 -11.9616 -5.47465
-1.86607 -11.9746 -5.47557
1.86608 -11.9746 -5.47557
5.4746 -11.9616 -5.47466
8.77018 -11.9322 -5.47276
11.2732 -11.9018 -5.47144
12.0317 -12.0317 -5.46993
-11.9018 -11.2732 -5.47144
-11.2009 -11.2009 -5.46894
-8.75232 -11.1767 -5.46869
-5.46974 -11.1703 -5.4698
-1.86517 -11.1694 -5.47038
1.86516 -11.1694 -5.47038
5.46971 -11.1704 -5.46979
8.7523 -11.1767 -5.46862
11.2008 -11.2009 -5.46894
11.9018 -11.2732 -5.47142
-11.9322 -8.77017 -5.47277
-11.1767 -8.75232 -5.46863
-8.74462 -8.74461 -5.46823
-5.46925 -8.74261 -5.46921
-1.8655 -8.74228 -5.46989
1.86549 -8.74227 -5.46989
5.46926 -8.74263 -5.4692
8.74461 -8.74458 -5.46824
11.1767 -8.75234 -5.46865
11.9322 -8.77018 -5.4728
-11.9616 -5.47461 -5.47465
-11.1703 -5.46975 -5.46976
-8.74261 -5.46923 -5.46925
-5.47029 -5.47029 -5.47031
-1.86618 -5.47098 -5.47095
1.86626 -5.47096 -5.47094
5.47037 -5.47031 -5.47036
8.74268 -5.4692 -5.46919
11.1704 -5.46976 -5.46979
11.9616 -5.47462 -5.47464
-11.9746 -1.86607 -5.47559
-11.1693 -1.86518 -5.47041
-8.74228 -1.8655 -5.46991
-5.47098 -1.86621 -5.47099
-1.86665 -1.86666 -5.47159
1.86663 -1.86664 -5.47162
5.47095 -1.8662 -5.47093
8.7423 -1.86549 -5.46993
11.1694 -1.86517 -5.47039
11.9747 -1.86605 -5.47559
-11.9746 1.8661 -5.47556
-11.1694 1.86515 -5.47038
-8.74229 1.8655 -5.46989
-5.47098 1.86624 -5.47092
-1.86666 1.86664 -5.47155
1.86662 1.86661 -5.47153
5.47095 1.86623 -5.47099
8.74228 1.86549 -5.46988
11.1693 1.86515 -5.47038
11.9747 1.86606 -5.47558
-11.9616 5.47461 -5.47464
-11.1703 5.46971 -5.46982
-8.74263 5.46927 -5.46923
-5.47027 5.47036 -5.47033
-1.86622 5.47093 -5.47101
1.86631 5.47096 -5.47101
5.47039 5.47033 -5.47029
8.7427 5.46928 -5.46924
11.1704 5.46976 -5.46981
11.9617 5.47462 -5.47465
-11.9322 8.77018 -5.47277
-11.1767 8.7523 -5.46864
-8.74463 8.74459 -5.46827
-5.46926 8.74268 -5.46928
-1.86552 8.74231 -5.46989
1.8655 8.74232 -5.46987
5.46926 8.74266 -5.4693
8.74455 8.7446 -5.46821
11.1767 8.75226 -5.46867
11.9322 8.77019 -5.47278
-11.9018 11.2733 -5.47144
-11.2009 11.2009 -5.46894
-8.75233 11.1767 -5.46864
-5.46975 11.1704 -5.46981
-1.86517 11.1693 -5.47038
1.86515 11.1693 -5.47039
5.46972 11.1704 -5.46978
8.7523 11.1767 -5.46869
11.2009 11.2009 -5.46894
11.9018 11.2732 -5.47144
-12.0317 12.0317 -5.46994
-11.2732 11.9018 -5.47144
-8.77018 11.9322 -5.4728
-5.47461 11.9617 -5.47463
-1.86607 11.9747 -5.4756
1.86608 11.9747 -5.47559
5.47461 11.9616 -5.47464
8.77019 11.9322 -5.47278
11.2732 11.9018 -5.47144
12.0317 12.0317 -5.46993
-12.0446 -12.0446 -1.86356
-11.2728 -11.9159 -1.86436
-8.77048 -11.9457 -1.86515
-5.47557 -11.9746 -1.86612
-1.86656 -11.9874 -1.86658
1.86659 -11.9875 -1.86656
5.47553 -11.9746 -1.86615
8.77047 -11.9457 -1.86515
11.2728 -11.9159 -1.86439
12.0446 -12.0446 -1.86356
-11.9159 -11.2728 -1.8644
-11.1998 -11.1998 -1.8641
-8.75196 -11.1758 -1.8644
-5.47038 -11.1693 -1.8652
-1.86559 -11.1682 -1.8656
1.86563 -11.1683 -1.8656
5.47042 -11.1693 -1.86522
8.75199 -11.1758 -1.86444
11.1998 -11.1998 -1.86409
11.916 -11.2728 -1.86438
-11.9457 -8.77048 -1.86514
-11.1758 -8.75197 -1.86444
-8.74423 -8.74425 -1.86481
-5.46987 -8.74229 -1.86545
-1.86589 -8.74188 -1.86592
1.86588 -8.74191 -1.86591
5.46988 -8.74227 -1.86546
8.74418 -8.74425 -1.86484
11.1757 -8.75196 -1.86443
11.9456 -8.77048 -1.86512
-11.9747 -5.47559 -1.86611
-11.1694 -5.47039 -1.86517
-8.74228 -5.46989 -1.86549
-5.47097 -5.47095 -1.86625
-1.86666 -5.47158 -1.86664
1.86663 -5.4716 -1.86664
5.47095 -5.47096 -1.86628
8.74231 -5.46991 -1.86545
11.1694 -5.47038 -1.86518
11.9747 -5.47557 -1.86611
-11.9874 -1.86653 -1.86655
-11.1683 -1.86558 -1.86562
-8.74188 -1.86591 -1.8659
-5.47157 -1.86664 -1.86667
-1.86704 -1.86704 -1.86708
1.86705 -1.86707 -1.86709
5.47155 -1.86664 -1.8666
8.74184 -1.86591 -1.86593
11.1682 -1.86559 -1.86561
11.9874 -1.86656 -1.86656
-11.9874 1.86654 -1.86655
-11.1682 1.86562 -1.86559
-8.74187 1.86589 -1.8659
-5.47157 1.86664 -1.86665
-1.86703 1.86704 -1.86698
1.86704 1.86701 -1.86697
5.47156 1.86664 -1.86665
8.74182 1.86587 -1.86591
11.1682 1.86563 -1.8656
11.9874 1.86656 -1.86656
-11.9746 5.47556 -1.86612
-11.1694 5.47042 -1.86523
-8.74228 5.46983 -1.86549
-5.47098 5.47096 -1.86625
-1.86665 5.47151 -1.86669
1.86662 5.47151 -1.86668
5.47093 5.47097 -1.86623
8.74232 5.46984 -1.86552
11.1694 5.4704 -1.86526
11.9747 5.47554 -1.86614
-11.9457 8.7704 -1.86519
-11.1758 8.75195 -1.86446
-8.74423 8.74418 -1.86483
-5.46987 8.74232 -1.8655
-1.86588 8.74185 -1.8659
1.86589 8.74184 -1.86589
5.46988 8.74232 -1.86558
8.74418 8.74417 -1.86481
11.1758 8.75198 -1.86445
11.9457 8.77042 -1.8652
-11.9159 11.2728 -1.86438
-11.1998 11.1998 -1.86414
-8.75196 11.1758 -1.86447
-5.47038 11.1694 -1.86524
-1.86559 11.1682 -1.86564
1.86563 11.1682 -1.86563
5.4704 11.1694 -1.86523
8.75197 11.1757 -1.86446
11.1998 11.1998 -1.86414
11.9159 11.2728 -1.86438
-12.0446 12.0446 -1.86357
-11.2728 11.9159 -1.86439
-8.77047 11.9457 -1.86523
-5.47556 11.9747 -1.86613
-1.86657 11.9874 -1.86658
1.86658 11.9874 -1.86658
5.47555 11.9747 -1.86614
8.77046 11.9456 -1.8652
11.2728 11.9159 -1.86438
12.0446 12.0446 -1.86358
-12.0446 -12.0446 1.8635
-11.2728 -11.9159 1.8643
-8.77047 -11.9457 1.86513
-5.47556 -11.9746 1.86607
-1.86656 -11.9874 1.86656
1.86657 -11.9874 1.86656
5.47553 -11.9747 1.86606
8.77045 -11.9457 1.86515
11.2728 -11.9159 1.86433
12.0446 -12.0446 1.8635
-11.9159 -11.2728 1.86435
-11.1998 -11.1998 1.86407
-8.75198 -11.1758 1.86443
-5.47038 -11.1694 1.86512
-1.8656 -11.1682 1.86558
1.86563 -11.1682 1.86558
5.47042 -11.1694 1.86514
8.75198 -11.1757 1.86448
11.1998 -11.1999 1.86409
11.9159 -11.2728 1.86431
-11.9457 -8.77048 1.86513
-11.1758 -8.75197 1.86446
-8.74424 -8.74424 1.86469
-5.4699 -8.74227 1.86552
-1.86589 -8.74188 1.86588
1.86591 -8.74181 1.86588
5.46986 -8.74229 1.86554
8.74421 -8.74422 1.86469
11.1758 -8.75198 1.86444
11.9457 -8.77048 1.8651
-11.9746 -5.47557 1.86602
-11.1694 -5.47038 1.86512
-8.74227 -5.46986 1.8655
-5.47097 -5.47096 1.86613
-1.86666 -5.47156 1.86667
1.86664 -5.47152 1.86666
5.47092 -5.471 1.86616
8.74231 -5.46985 1.86551
11.1693 -5.47039 1.86512
11.9746 -5.47557 1.86605
-11.9874 -1.86653 1.86654
-11.1682 -1.8656 1.86556
-8.74188 -1.86589 1.86586
-5.47156 -1.86667 1.86662
-1.86703 -1.86705 1.86703
1.86705 -1.86695 1.86697
5.47156 -1.86668 1.86664
8.74187 -1.8659 1.86583
11.1682 -1.86561 1.86555
11.9874 -1.86654 1.86654
-11.9874 1.86657 1.86656
-11.1682 1.86562 1.86559
-8.74187 1.86592 1.86586
-5.47154 1.86662 1.86667
-1.86704 1.86705 1.86708
1.86706 1.8671 1.86711
5.47158 1.86658 1.86662
8.7419 1.86595 1.86591
11.1682 1.86561 1.86559
11.9875 1.86658 1.86657
-11.9746 5.47558 1.86602
-11.1694 5.47042 1.86511
-8.74227 5.46988 1.86552
-5.47098 5.47093 1.8662
-1.86665 5.47155 1.86661
1.86663 5.47162 1.8666
5.47093 5.47089 1.86627
8.74229 5.46991 1.86547
11.1693 5.47041 1.86511
11.9746 5.47557 1.86605
-11.9457 8.77043 1.86506
-11.1758 8.75196 1.86442
-8.74423 8.74421 1.86469
-5.46989 8.74231 1.86548
-1.86588 8.74183 1.86588
1.86591 8.74196 1.86589
5.46985 8.74222 1.86542
8.74417 8.74428 1.86473
11.1758 8.75195 1.86445
11.9457 8.77043 1.86508
-11.9159 11.2728 1.86429
-11.1998 11.1999 1.86404
-8.75198 11.1758 1.86443
-5.47038 11.1694 1.8651
-1.86561 11.1682 1.86558
1.86561 11.1683 1.86558
5.4704 11.1692 1.86514
8.75195 11.1758 1.86438
11.1998 11.1998 1.86401
11.9159 11.2728 1.86428
-12.0446 12.0446 1.86348
-11.2728 11.9159 1.86431
-8.77048 11.9457 1.86509
-5.47555 11.9746 1.86606
-1.86658 11.9874 1.86656
1.86657 11.9875 1.86656
5.47554 11.9746 1.86604
8.77044 11.9458 1.86507
11.2728 11.9159 1.86428
12.0445 12.0446 1.8635
-12.0317 -12.0317 5.46985
-11.2732 -11.9018 5.47138
-8.77018 -11.9322 5.47272
-5.47461 -11.9616 5.47455
-1.86607 -11.9746 5.47555
1.86609 -11.9747 5.47554
5.47463 -11.9616 5.47454
8.77018 -11.9322 5.47274
11.2732 -11.9018 5.47137
12.0317 -12.0317 5.46985
-11.9018 -11.2732 5.47138
-11.2009 -11.2009 5.46884
-8.75232 -11.1767 5.46865
-5.46974 -11.1703 5.46969
-1.86518 -11.1694 5.47035
1.86515 -11.1694 5.47034
5.46972 -11.1703 5.46968
8.7523 -11.1767 5.46866
11.2009 -11.2009 5.46884
11.9018 -11.2732 5.47139
-11.9322 -8.7702 5.47275
-11.1767 -8.75234 5.46863
-8.74461 -8.74461 5.46813
-5.46923 -8.74263 5.46931
-1.86551 -8.74226 5.46983
1.86548 -8.7423 5.46983
5.46926 -8.74263 5.46929
8.74461 -8.74463 5.46809
11.1767 -8.75234 5.46866
11.9322 -8.77019 5.47275
-11.9616 -5.47463 5.47455
-11.1703 -5.46975 5.46975
-8.74263 -5.46924 5.46929
-5.47027 -5.47028 5.47019
-1.86624 -5.47096 5.47098
1.86627 -5.47098 5.47099
5.47035 -5.47027 5.47026
8.74268 -5.46924 5.46931
11.1704 -5.46974 5.46969
11.9617 -5.47462 5.47456
-11.9746 -1.86608 5.47553
-11.1693 -1.86517 5.4703
-8.74227 -1.8655 5.46982
-5.47097 -1.8662 5.47099
-1.86665 -1.86665 5.47152
1.86663 -1.86669 5.47149
5.47096 -1.8662 5.47099
8.7423 -1.8655 5.46979
11.1693 -1.86517 5.47033
11.9746 -1.86609 5.47554
-11.9746 1.86607 5.47553
-11.1693 1.86513 5.47034
-8.74227 1.86548 5.46981
-5.47098 1.86624 5.47094
-1.86666 1.86663 5.47159
1.86662 1.86659 5.4716
5.47091 1.86626 5.47091
8.74227 1.86548 5.4698
11.1693 1.86514 5.47039
11.9746 1.86605 5.47554
-11.9616 5.4746 5.47459
-11.1703 5.46972 5.46968
-8.74261 5.46923 5.46929
-5.47026 5.47034 5.4703
-1.86621 5.47097 5.47089
1.86629 5.47091 5.47096
5.47034 5.47039 5.47031
8.7427 5.46923 5.46928
11.1704 5.46974 5.46966
11.9617 5.47466 5.47456
-11.9323 8.77017 5.47273
-11.1767 8.75226 5.46862
-8.74462 8.74457 5.4681
-5.46924 8.74266 5.46926
-1.86551 8.7423 5.46981
1.86548 8.74227 5.46984
5.46927 8.74269 5.46921
8.7446 8.74454 5.46813
11.1767 8.75228 5.46863
11.9322 8.77023 5.47274
-11.9018 11.2733 5.47142
-11.2009 11.2009 5.46882
-8.75232 11.1767 5.46863
-5.46974 11.1704 5.46968
-1.86517 11.1694 5.47034
1.86518 11.1693 5.47033
5.46976 11.1704 5.46969
8.75228 11.1766 5.46863
11.2009 11.2009 5.46887
11.9018 11.2733 5.47142
-12.0317 12.0317 5.46986
-11.2733 11.9018 5.4714
-8.77018 11.9322 5.47272
-5.47461 11.9616 5.47455
-1.86607 11.9747 5.47551
1.8661 11.9746 5.47552
5.47465 11.9617 5.47456
8.77024 11.9322 5.47273
11.2733 11.9018 5.4714
12.0317 12.0317 5.46985
-12.0015 -12.0015 8.77698
-11.2774 -11.8691 8.77398