# vtk DataFile Version 3.0 
Lennard-Jones particle simulation 
ASCII 
DATASET UNSTRUCTURED_GRID 
POINTS 2 float 
3.52382 3.52382 3.52382
1.47618 1.47618 1.47618
CELLS 0 0
CELL_TYPES 0
POINT_DATA 2
SCALARS mass float 
LOOKUP_TABLE default 
1
1
VECTORS velocity float 
0.371924 0.371924 0.371924
-0.371924 -0.371924 -0.371924
