# vtk DataFile Version 3.0 
Lennard-Jones particle simulation 
ASCII 
DATASET UNSTRUCTURED_GRID 
POINTS 1000 float 
-3.50604 -3.50604 -3.50604
-1.9526 -3.48974 -3.48974
-0.256205 -3.49025 -3.49025
1.59445 -3.49208 -3.49209
3.52328 -3.49314 -3.49314
5.47673 -3.49314 -3.49314
7.40556 -3.49208 -3.49209
9.25621 -3.49024 -3.49025
10.9526 -3.48974 -3.48974
12.506 -3.50604 -3.50604
-3.48974 -1.9526 -3.48974
-1.94558 -1.94558 -3.46709
-0.254229 -1.94641 -3.46632
1.59459 -1.94752 -3.46782
3.52321 -1.94812 -3.46882
5.47677 -1.94812 -3.46882
7.40541 -1.94752 -3.46782
9.25423 -1.94641 -3.46631
10.9456 -1.94558 -3.46709
12.4897 -1.9526 -3.48974
-3.49025 -0.256207 -3.49025
-1.94641 -0.254228 -3.46631
-0.25553 -0.25553 -3.46517
1.59351 -0.256701 -3.46652
3.52283 -0.25724 -3.46749
5.47718 -0.25724 -3.46749
7.4065 -0.2567 -3.46652
9.25553 -0.255529 -3.46517
10.9464 -0.254223 -3.46632
12.4902 -0.256202 -3.49025
-3.49208 1.59445 -3.49208
-1.94752 1.59459 -3.46782
-0.256701 1.59351 -3.46653
1.59258 1.59258 -3.46778
3.52247 1.59215 -3.46871
5.47753 1.59215 -3.46871
7.40742 1.59258 -3.46779
9.2567 1.59351 -3.46652
10.9475 1.59459 -3.46782
12.4921 1.59445 -3.49208
-3.49314 3.52329 -3.49314
-1.94812 3.52322 -3.46882
-0.257244 3.52283 -3.46749
1.59214 3.52247 -3.46872
3.52229 3.5223 -3.46961
5.47771 3.5223 -3.46961
7.40785 3.52247 -3.46871
9.25724 3.52283 -3.4675
10.9481 3.52322 -3.46882
12.4931 3.52328 -3.49314
-3.49314 5.47672 -3.49313
-1.94812 5.47678 -3.46881
-0.257242 5.47718 -3.46749
1.59215 5.47753 -3.4687
3.5223 5.4777 -3.4696
5.47771 5.4777 -3.4696
7.40786 5.47753 -3.46871
9.25725 5.47718 -3.46749
10.9481 5.47679 -3.46882
12.4931 5.47672 -3.49314
-3.49209 7.40556 -3.49209
-1.94752 7.40541 -3.46783
-0.256706 7.40651 -3.46653
1.59258 7.40741 -3.46779
3.52246 7.40785 -3.46871
5.47753 7.40785 -3.46872
7.40741 7.40741 -3.46778
9.2567 7.40649 -3.46653
10.9475 7.40541 -3.46783
12.4921 7.40556 -3.49209
-3.49025 9.25621 -3.49025
-1.94641 9.25423 -3.46631
-0.255531 9.25554 -3.46517
1.59351 9.2567 -3.46653
3.52283 9.25725 -3.46749
5.47718 9.25725 -3.46749
7.4065 9.2567 -3.46653
9.25553 9.25553 -3.46517
10.9464 9.25423 -3.46632
12.4902 9.25621 -3.49025
-3.48974 10.9526 -3.48974
-1.94558 10.9456 -3.4671
-0.254229 10.9464 -3.46632
1.59459 10.9475 -3.46783
3.52322 10.9481 -3.46882
5.47678 10.9481 -3.46882
7.40542 10.9475 -3.46783
9.25423 10.9464 -3.46632
10.9456 10.9456 -3.46709
12.4897 10.9526 -3.48974
-3.50604 12.506 -3.50604
-1.9526 12.4897 -3.48974
-0.256206 12.4903 -3.49025
1.59445 12.4921 -3.49209
3.52328 12.4931 -3.49314
5.47672 12.4931 -3.49314
7.40556 12.4921 -3.49209
9.25621 12.4902 -3.49025
10.9526 12.4897 -3.48974
12.506 12.506 -3.50604
-3.48974 -3.48974 -1.9526
-1.94558 -3.46709 -1.94558
-0.25423 -3.46632 -1.94641
1.59459 -3.46782 -1.94752
3.52322 -3.46882 -1.94812
5.47677 -3.46882 -1.94812
7.40542 -3.46782 -1.94752
9.25423 -3.46632 -1.94641
10.9456 -3.46709 -1.94559
12.4897 -3.48974 -1.9526
-3.46709 -1.94558 -1.94558
-1.93409 -1.93409 -1.93409
-0.249738 -1.9339 -1.9339
1.59595 -1.93462 -1.93462
3.5235 -1.93509 -1.93509
5.4765 -1.93509 -1.93509
7.40404 -1.93462 -1.93462
9.24975 -1.9339 -1.9339
10.9341 -1.93409 -1.93409
12.4671 -1.94558 -1.94559
-3.46632 -0.254227 -1.94641
-1.9339 -0.249738 -1.9339
-0.250462 -0.250458 -1.93343
1.59516 -0.251382 -1.93401
3.52319 -0.251836 -1.93446
5.47681 -0.251834 -1.93446
7.40484 -0.251384 -1.93401
9.25046 -0.250458 -1.93343
10.9339 -0.249739 -1.9339
12.4663 -0.254229 -1.94641
-3.46782 1.59459 -1.94752
-1.93461 1.59596 -1.93462
-0.251383 1.59516 -1.93402
1.59434 1.59435 -1.93453
3.52287 1.59396 -1.93495
5.47713 1.59396 -1.93495
7.40566 1.59435 -1.93455
9.25138 1.59516 -1.93401
10.9346 1.59596 -1.93461
12.4678 1.59459 -1.94752
-3.46882 3.52322 -1.94812
-1.93509 3.5235 -1.93509
-0.251835 3.52319 -1.93445
1.59396 3.52286 -1.93496
3.52271 3.52271 -1.93535
5.4773 3.52271 -1.93535
7.40605 3.52286 -1.93495
9.25184 3.52319 -1.93446
10.9351 3.52351 -1.93509
12.4688 3.52322 -1.94812
-3.46883 5.47678 -1.94811
-1.9351 5.47649 -1.93509
-0.251842 5.47681 -1.93446
1.59396 5.47713 -1.93494
3.5227 5.4773 -1.93534
5.4773 5.4773 -1.93534
7.40605 5.47713 -1.93496
9.25184 5.47681 -1.93445
10.9351 5.47649 -1.93509
12.4688 5.47678 -1.94812
-3.46782 7.40542 -1.94753
-1.93461 7.40405 -1.93462
-0.251384 7.40484 -1.93401
1.59434 7.40565 -1.93454
3.52287 7.40605 -1.93496
5.47713 7.40605 -1.93496
7.40566 7.40565 -1.93453
9.25139 7.40484 -1.93402
10.9346 7.40405 -1.93462
12.4678 7.40542 -1.94752
-3.46632 9.25423 -1.94641
-1.9339 9.24975 -1.9339
-0.25046 9.25047 -1.93343
1.59516 9.25139 -1.93402
3.52319 9.25184 -1.93445
5.47681 9.25184 -1.93445
7.40484 9.25139 -1.93402
9.25046 9.25047 -1.93342
10.9339 9.24975 -1.9339
12.4663 9.25423 -1.94641
-3.4671 10.9456 -1.94559
-1.93409 10.9341 -1.9341
-0.249739 10.9339 -1.9339
1.59595 10.9346 -1.93462
3.5235 10.9351 -1.9351
5.4765 10.9351 -1.93509
7.40404 10.9346 -1.93462
9.24975 10.9339 -1.93391
10.9341 10.9341 -1.9341
12.4671 10.9456 -1.94559
-3.48975 12.4897 -1.9526
-1.94559 12.4671 -1.94559
-0.254231 12.4663 -1.94641
1.59459 12.4678 -1.94752
3.52322 12.4688 -1.94812
5.47677 12.4688 -1.94812
7.40542 12.4678 -1.94752
9.25423 12.4663 -1.94641
10.9456 12.4671 -1.94559
12.4897 12.4897 -1.9526
-3.49025 -3.49025 -0.25621
-1.94641 -3.46632 -0.254229
-0.255534 -3.46517 -0.255528
1.5935 -3.46653 -0.256704
3.52282 -3.46749 -0.257242
5.47718 -3.46749 -0.257242
7.4065 -3.46653 -0.256704
9.25554 -3.46518 -0.255528
10.9464 -3.46632 -0.254232
12.4903 -3.49025 -0.256209
-3.46632 -1.94641 -0.254228
-1.9339 -1.93391 -0.249739
-0.250462 -1.93342 -0.250458
1.59516 -1.93402 -0.251388
3.52319 -1.93446 -0.251834
5.47681 -1.93446 -0.251834
7.40484 -1.93401 -0.251386
9.25047 -1.93343 -0.250458
10.9339 -1.9339 -0.249741
12.4663 -1.94641 -0.254231
-3.46517 -0.255533 -0.25553
-1.93342 -0.250462 -0.250458
-0.25102 -0.251018 -0.251024
1.59443 -0.251875 -0.251864
3.5229 -0.252302 -0.252304
5.4771 -0.252304 -0.252303
7.40557 -0.25187 -0.251862
9.25102 -0.251025 -0.251029
10.9334 -0.25046 -0.250461
12.4652 -0.255533 -0.255532
-3.46653 1.59351 -0.256703
-1.93402 1.59516 -0.251382
-0.251877 1.59443 -0.251869
1.59365 1.59365 -0.252689
3.52258 1.59327 -0.253111
5.47741 1.59327 -0.253108
7.40635 1.59366 -0.252703
9.25186 1.59442 -0.251861
10.934 1.59516 -0.251384
12.4665 1.59351 -0.2567
-3.46749 3.52282 -0.257247
-1.93446 3.52319 -0.251839
-0.252306 3.52288 -0.252304
1.59327 3.52258 -0.25312
3.52242 3.52242 -0.253518
5.47757 3.52242 -0.253526
7.40672 3.52258 -0.253108
9.2523 3.52288 -0.252307
10.9345 3.52319 -0.251839
12.4675 3.52282 -0.257246
-3.4675 5.47718 -0.257242
-1.93446 5.4768 -0.251833
-0.252303 5.4771 -0.252306
1.59327 5.47741 -0.253101
3.52243 5.47758 -0.253507
5.47758 5.47757 -0.253502
7.40673 5.47742 -0.253114
9.2523 5.47709 -0.252302
10.9345 5.47681 -0.251832
12.4675 5.47718 -0.257243
-3.46651 7.40649 -0.256708
-1.93401 7.40484 -0.251389
-0.251869 7.40556 -0.251868
1.59365 7.40634 -0.252696
3.52258 7.40673 -0.253117
5.47742 7.40672 -0.253119
7.40634 7.40635 -0.252686
9.25185 7.40556 -0.251874
10.934 7.40484 -0.25139
12.4665 7.40649 -0.256709
-3.46516 9.25553 -0.255536
-1.93342 9.25047 -0.250459
-0.251014 9.25101 -0.251026
1.59444 9.25186 -0.251875
3.5229 9.2523 -0.252303
5.4771 9.2523 -0.252298
7.40557 9.25187 -0.25188
9.25101 9.25101 -0.251019
10.9334 9.25046 -0.250464
12.4652 9.25553 -0.255534
-3.46631 10.9464 -0.254234
-1.9339 10.9339 -0.249745
-0.250455 10.9334 -0.25046
1.59516 10.934 -0.251391
3.52319 10.9345 -0.251839
5.4768 10.9345 -0.25184
7.40484 10.934 -0.251387
9.25047 10.9334 -0.250467
10.9339 10.9339 -0.249743
12.4663 10.9464 -0.254235
-3.49024 12.4902 -0.256211
-1.9464 12.4663 -0.254233
-0.255527 12.4652 -0.255536
1.59351 12.4665 -0.256706
3.52282 12.4675 -0.257246
5.47718 12.4675 -0.257245
7.4065 12.4665 -0.256706
9.25553 12.4652 -0.255537
10.9464 12.4663 -0.254234
12.4902 12.4902 -0.256213
-3.49207 -3.49207 1.59444
-1.94751 -3.46781 1.59459
-0.256693 -3.46652 1.59351
1.59259 -3.46778 1.59258
3.52247 -3.46871 1.59215
5.47753 -3.46871 1.59215
7.40741 -3.46778 1.59258
9.25669 -3.46652 1.59351
10.9475 -3.46781 1.59458
12.4921 -3.49207 1.59444
-3.46781 -1.94751 1.59458
-1.93461 -1.93461 1.59595
-0.251376 -1.93401 1.59515
1.59435 -1.93453 1.59434
3.52287 -1.93495 1.59396
5.47713 -1.93495 1.59396
7.40564 -1.93453 1.59434
9.25137 -1.934 1.59516
10.9346 -1.93461 1.59595
12.4678 -1.94751 1.59459
-3.46652 -0.256692 1.59351
-1.93401 -0.251376 1.59516
-0.251871 -0.251867 1.59442
1.59365 -0.252683 1.59366
3.52258 -0.253112 1.59327
5.47742 -0.253109 1.59327
7.40635 -0.252687 1.59367
9.25187 -0.251862 1.59442
10.934 -0.25138 1.59515
12.4665 -0.256694 1.5935
-3.46778 1.59259 1.59258
-1.93453 1.59435 1.59434
-0.252682 1.59366 1.59365
1.5929 1.5929 1.59289
3.52229 1.59251 1.59251
5.47773 1.59251 1.59252
7.40712 1.59289 1.59288
9.2527 1.59367 1.59367
10.9345 1.59434 1.59434
12.4678 1.59259 1.59258
-3.46871 3.52247 1.59214
-1.93495 3.52287 1.59395
-0.253112 3.52258 1.59327
1.59251 3.52228 1.59251
3.52211 3.52211 1.59214
5.47788 3.52212 1.59213
7.40748 3.52228 1.59252
9.25311 3.52259 1.59326
10.935 3.52287 1.59396
12.4687 3.52248 1.59214
-3.46871 5.47754 1.59215
-1.93495 5.47712 1.59396
-0.253113 5.47742 1.59327
1.59251 5.47773 1.59252
3.52211 5.47788 1.59215
5.47788 5.47788 1.59216
7.40748 5.47773 1.59251
9.25311 5.47742 1.59327
10.935 5.47712 1.59396
12.4687 5.47753 1.59215
-3.46778 7.40741 1.59258
-1.93453 7.40564 1.59433
-0.252684 7.40635 1.59366
1.5929 7.40712 1.59289
3.52228 7.40748 1.5925
5.47774 7.40749 1.5925
7.40712 7.40711 1.5929
9.2527 7.40635 1.59365
10.9345 7.40565 1.59433
12.4678 7.40741 1.59257
-3.46652 9.25669 1.59351
-1.93401 9.25137 1.59516
-0.251873 9.25187 1.59441
1.59365 9.2527 1.59365
3.52258 9.25311 1.59327
5.47742 9.25312 1.59328
7.40635 9.25269 1.59364
9.25186 9.25187 1.59442
10.934 9.25136 1.59515
12.4665 9.25669 1.5935
-3.46782 10.9475 1.59458
-1.93461 10.9346 1.59595
-0.251378 10.934 1.59516
1.59435 10.9345 1.59433
3.52287 10.935 1.59396
5.47712 10.935 1.59396
[...]
POINT_DATA 1000
SCALARS mass float 
LOOKUP_TABLE default 
1
1
1
1
1
1
1
1
1
1
1
1
1
1
1
1
1
1
1
1
1
1
1
1
1
1
1
1
1
1
1
1
1
1
1
1
1
1
1
1
1
1
1
1
1
1
1
1
1
1
1
1
1
1
1
1
1
1
1
1
1
1
1
1
1
1
1
1
1
1
1
1
1
1
1
1
1
1
1
1
1
1
1
1
1
1
1
1
1
1
1
1
1
1
1
1
1
1
1
1
1
1
1
1
1
1
1
1
1
1
1
1
1
1
1
1
1
1
1
1
1
1
1
1
1
1
1
1
1
1
1
1
1
1
1
1
1
1
1
1
1
1
1
1
1
1
1
1
1
1
1
1
1
1
1
1
1
1
1
1
1
1
1
1
1
1
1
1
1
1
1
1
1
1
1
1
1
1
1
1
1
1
1
1
1
1
1
1
1
1
1
1
1
1
1
1
1
1
1
1
1
1
1
1
1
1
1
1
1
1
1
1
1
1
1
1
1
1
1
1
1
1
1
1
1
1
1
1
1
1
1
1
1
1
1
1
1
1
1
1
1
1
1
1
1
1
1
1
1
1
1
1
1
1
1
1
1
1
1
1
1
1
1
1
1
1
1
1
1
1
1
1
1
1
1
1
1
1
1
1
1
1
1
1
1
1
1
1
1
1
1
1
1
1
1
1
1
1
1
1
1
1
1
1
1
1
1
1
1
1
1
1
1
1
1
1
1
1
1
1
1
1
1
1
1
1
1
1
1
1
1
1
1
1
1
1
1
1
1
1
1
1
1
1
1
1
1
1
1
1
1
1
1
1
1
1
1
1
1
1
1
1
1
1
1
1
1
1
1
1
1
1
1
1
1
1
1
1
1
1
1
1
1
1
1
1
1
1
1
1
1
1
1
1
1
1
1
1
1
1
1
1
1
1
1
1
1
1
1
1
1
1
1
1
1
1
1
1
1
1
1
1
1
1
1
1
1
1
1
1
1
1
1
1
1
1
1
1
1
1
1
1
1
1
1
1
1
1
1
1
1
1
1
1
1
1
1
1
1
1
1
1
1
1
1
1
1
1
1
1
1
1
1
1
1
1
1
1
1
1
1
1
1
1
1
1
1
1
1
1
1
1
1
1
1
1
1
1
1
1
1
1
1
1
1
1
1
1
1
1
1
1
1
1
1
1
1
1
1
1
1
1
1
1
1
1
1
1
1
1
1
1
1
1
1
1
1
1
1
1
1
1
1
1
1
1
1
1
1
1
1
1
1
1
1
1
1
1
1
1
1
1
1
1
1
1
1
1
1
1
1
1
1
1
1
1
1
1
1
1
1
1
1
1
1
1
1
1
1
1
1
1
1
1
1
1
1
1
1
1
1
1
1
1
1
1
1
1
1
1
1
1
1
1
1
1
1
1
1
1
1
1
1
1
1
1
1
1
1
1
1
1
1
1
1
1
1
1
1
1
1
1
1
1
1
1
1
1
1
1
1
1
1
1
1
1
1
1
1
1
1
1
1
1
1
1
1
1
1
1
1
1
1
1
1
1
1
1
1
1
1
1
1
1
1
1
1
1
1
1
1
1
1
1
1
1
1
1
1
1
1
1
1
1
1
1
1
1
1
1
1
1
1
1
1
1
1
1
1
1
1
1
1
1
1
1
1
1
1
1
1
1
1
1
1
1
1
1
1
1
1
1
1
1
1
1
1
1
1
1
1
1
1
1
1
1
1
1
1
1
1
1
1
1
1
1
1
1
1
1
1
1
1
1
1
1
1
1
1
1
1
1
1
1
1
1
1
1
1
1
1
1
1
1
1
1
1
1
1
1
1
1
1
1
1
1
1
1
1
1
1
1
1
1
1
1
1
1
1
1
1
1
1
1
1
1
1
1
1
1
1
1
1
1
1
1
1
1
1
1
1
1
1
1
1
1
1
1
1
1
1
1
1
1
1
1
1
1
1
1
1
1
1
1
1
1
1
1
1
1
1
1
1
1
1
1
1
1
1
1
1
1
1
1
1
1
1
1
1
1
1
1
1
1
1
1
1
1
1
1
1
1
1
1
1
1
1
1
1
1
1
1
1
1
1
1
1
1
1
1
1
1
1
1
1
1
1
1
1
1
1
1
1
1
1
1
1
1
1
1
1
1
1
1
1
1
1
1
1
1
1
1
1
1
1
1
1
1
1
1
1
1
1
1
1
1
1
1
1
1
1
1
1
1
1
1
1
1
1
1
1
1
1
1
1
1
1
1
1
1
1
1
1
1
1
1
1
1
1
1
VECTORS velocity float 
-12.4138 -12.4138 -12.4138
-11.1578 -12.3301 -12.3301
-8.70509 -12.3399 -12.3399
-5.44862 -12.3556 -12.3556
-1.85774 -12.3637 -12.3637
1.85776 -12.3637 -12.3637
5.44867 -12.3556 -12.3556
8.70509 -12.3399 -12.3399
11.1578 -12.3301 -12.3301
12.4138 -12.4138 -12.4138
-12.3301 -11.1578 -12.3301
-11.1121 -11.1121 -12.2214
-8.69403 -11.1116 -12.2287
-5.44793 -11.1139 -12.2449
-1.85806 -11.1155 -12.2536
1.85801 -11.1155 -12.2536
5.44794 -11.1139 -12.2449
8.69401 -11.1116 -12.2287
11.1121 -11.1121 -12.2214
12.3301 -11.1578 -12.3301
-12.3399 -8.70511 -12.3399
-11.1116 -8.69402 -12.2287
-8.69653 -8.69653 -12.2351
-5.45114 -8.69896 -12.2509
-1.85934 -8.70006 -12.2595
1.85938 -8.70006 -12.2595
5.45116 -8.69896 -12.2509
8.69652 -8.69653 -12.2352
11.1116 -8.694 -12.2287
12.3399 -8.70508 -12.3399
-12.3556 -5.44862 -12.3556
-11.1139 -5.44795 -12.2449
-8.69897 -5.45112 -12.2509
-5.45384 -5.45384 -12.2663
-1.86055 -5.45503 -12.2747
1.86055 -5.45503 -12.2747
5.45384 -5.45384 -12.2663
8.69896 -5.45114 -12.2509
11.1139 -5.44792 -12.2449
12.3556 -5.44863 -12.3556
-12.3637 -1.85771 -12.3637
-11.1155 -1.85804 -12.2536
-8.70008 -1.85934 -12.2595
-5.45505 -1.86054 -12.2747
-1.86109 -1.86109 -12.283
1.8611 -1.86109 -12.283
5.45499 -1.86054 -12.2747
8.70004 -1.85934 -12.2596
11.1155 -1.85805 -12.2536
12.3637 -1.85773 -12.3637
-12.3637 1.85771 -12.3637
-11.1155 1.85806 -12.2536
-8.70008 1.85937 -12.2595
-5.45504 1.86054 -12.2746
-1.86106 1.86107 -12.2829
1.86109 1.86108 -12.2829
5.45505 1.86054 -12.2747
8.7001 1.85937 -12.2595
11.1155 1.85806 -12.2536
12.3637 1.85773 -12.3637
-12.3556 5.44868 -12.3556
-11.1139 5.44794 -12.2449
-8.69899 5.45121 -12.2509
-5.45384 5.4538 -12.2663
-1.86056 5.45502 -12.2747
1.86051 5.45501 -12.2747
5.45381 5.45381 -12.2663
8.69896 5.45113 -12.251
11.1139 5.44792 -12.2449
12.3556 5.44864 -12.3556
-12.3399 8.70509 -12.3399
-11.1116 8.69399 -12.2287
-8.69654 8.69653 -12.2352
-5.45114 8.69897 -12.251
-1.85933 8.70008 -12.2595
1.85938 8.70008 -12.2595
5.45116 8.69898 -12.251
8.69653 8.69653 -12.2351
11.1116 8.69404 -12.2287
12.3399 8.7051 -12.3399
-12.3301 11.1578 -12.3301
-11.1121 11.1121 -12.2214
-8.69403 11.1116 -12.2287
-5.44794 11.1139 -12.2449
-1.85804 11.1155 -12.2536
1.85802 11.1155 -12.2536
5.44796 11.1139 -12.2449
8.694 11.1116 -12.2287
11.1121 11.1121 -12.2214
12.3301 11.1578 -12.3301
-12.4138 12.4138 -12.4138
-11.1578 12.3301 -12.3301
-8.7051 12.3399 -12.3399
-5.44863 12.3556 -12.3556
-1.85773 12.3637 -12.3637
1.85775 12.3637 -12.3637
5.44865 12.3556 -12.3556
8.7051 12.3399 -12.3399
11.1578 12.3301 -12.3301
12.4138 12.4138 -12.4138
-12.3301 -12.3301 -11.1578
-11.1121 -12.2214 -11.1121
-8.69403 -12.2287 -11.1116
-5.44793 -12.2449 -11.1139
-1.85806 -12.2536 -11.1155
1.858 -12.2536 -11.1155
5.44796 -12.2449 -11.1139
8.694 -12.2287 -11.1116
11.1121 -12.2214 -11.1122
12.3301 -12.3301 -11.1578
-12.2214 -11.1121 -11.1121
-11.0411 -11.0411 -11.0411
-8.67033 -11.0354 -11.0353
-5.44175 -11.0358 -11.0358
-1.85684 -11.0369 -11.0369
1.85687 -11.0369 -11.0369
5.4417 -11.0358 -11.0358
8.67038 -11.0354 -11.0353
11.0411 -11.0411 -11.0411
12.2214 -11.1121 -11.1121
-12.2287 -8.69401 -11.1116
-11.0354 -8.67033 -11.0353
-8.66989 -8.66987 -11.0284
-5.44362 -8.6709 -11.0282
-1.85783 -8.6715 -11.0292
1.85781 -8.67149 -11.0292
5.44363 -8.67091 -11.0282
8.66989 -8.66987 -11.0284
11.0353 -8.67034 -11.0354
12.2287 -8.69403 -11.1116
-12.2449 -5.44794 -11.1139
-11.0358 -5.44171 -11.0358
-8.67092 -5.44361 -11.0282
-5.44569 -5.44569 -11.0277
-1.85879 -5.44661 -11.0286
1.85881 -5.44661 -11.0286
5.44572 -5.4457 -11.0278
8.67093 -5.44361 -11.0282
11.0358 -5.44173 -11.0358
12.2449 -5.44794 -11.1139
-12.2536 -1.85805 -11.1155
-11.0369 -1.85684 -11.0369
-8.67149 -1.85781 -11.0292
-5.44661 -1.85884 -11.0287
-1.8593 -1.85931 -11.0294
1.85933 -1.85929 -11.0294
5.44667 -1.85885 -11.0286
8.6715 -1.85779 -11.0292
11.0369 -1.85683 -11.0369
12.2536 -1.85805 -11.1155
-12.2536 1.85805 -11.1155
-11.0369 1.85684 -11.0369
-8.67153 1.8578 -11.0292
-5.44663 1.85884 -11.0286
-1.85933 1.85933 -11.0294
1.85933 1.85932 -11.0293
5.44665 1.85883 -11.0286
8.67151 1.85778 -11.0292
11.0369 1.85682 -11.0369
12.2536 1.85804 -11.1155
-12.2449 5.44795 -11.1139
-11.0358 5.44174 -11.0358
-8.67092 5.4436 -11.0282
-5.4457 5.44569 -11.0278
-1.8588 5.44666 -11.0287
1.85882 5.44667 -11.0287
5.44572 5.4457 -11.0277
8.67094 5.44363 -11.0282
11.0358 5.44173 -11.0358
12.2449 5.44797 -11.1139
-12.2287 8.69401 -11.1116
-11.0354 8.67037 -11.0353
-8.66988 8.66992 -11.0284
-5.44361 8.67095 -11.0282
-1.85783 8.67151 -11.0292
1.85778 8.67152 -11.0292
5.44361 8.67093 -11.0283
8.66991 8.66992 -11.0283
11.0353 8.67036 -11.0354
12.2287 8.694 -11.1116
-12.2214 11.1121 -11.1122
-11.0411 11.0411 -11.0411
-8.67034 11.0353 -11.0354
-5.44175 11.0358 -11.0358
-1.85685 11.0369 -11.0369
1.85687 11.0369 -11.0369
5.4417 11.0358 -11.0358
8.67038 11.0353 -11.0354
11.0411 11.0411 -11.0411
12.2214 11.1121 -11.1122
-12.3301 12.3301 -11.1578
-11.1122 12.2214 -11.1122
-8.69404 12.2287 -11.1116
-5.44794 12.2449 -11.1139
-1.85806 12.2536 -11.1155
1.858 12.2536 -11.1155
5.44796 12.2449 -11.1139
8.69401 12.2287 -11.1116
11.1121 12.2214 -11.1122
12.3301 12.3301 -11.1578
-12.3399 -12.3399 -8.70512
-11.1116 -12.2287 -8.69403
-8.69656 -12.2351 -8.69652
-5.45116 -12.251 -8.69898
-1.85935 -12.2596 -8.70007
1.85939 -12.2596 -8.70007
5.45117 -12.2509 -8.69898
8.69654 -12.2352 -8.69652
11.1116 -12.2287 -8.69404
12.3399 -12.3399 -8.70511
-12.2287 -11.1116 -8.69402
-11.0354 -11.0354 -8.67033
-8.66989 -11.0283 -8.66988
-5.44363 -11.0282 -8.67093
-1.85783 -11.0292 -8.67149
1.85781 -11.0292 -8.67149
5.44363 -11.0282 -8.67092
8.66993 -11.0284 -8.66988
11.0354 -11.0354 -8.67034
12.2287 -11.1116 -8.69404
-12.2351 -8.69655 -8.69653
-11.0283 -8.66989 -8.66988
-8.66874 -8.66873 -8.66876
-5.44525 -8.66946 -8.66941
-1.8587 -8.66994 -8.66994
1.85868 -8.66994 -8.66994
5.44524 -8.66944 -8.6694
8.66873 -8.66876 -8.66878
11.0283 -8.66988 -8.66989
12.2352 -8.69655 -8.69654
-12.251 -5.45116 -8.69897
-11.0282 -5.44363 -8.6709
-8.66947 -5.44525 -8.66943
-5.44719 -5.44717 -8.67001
-1.85969 -5.44809 -8.67046
1.85966 -5.4481 -8.67045
5.44719 -5.44715 -8.67007
8.6694 -5.44529 -8.6694
11.0282 -5.44363 -8.67091
12.2509 -5.45115 -8.69896
-12.2596 -1.85936 -8.70009
-11.0292 -1.85781 -8.6715
-8.66994 -1.85875 -8.66995
-5.44811 -1.85969 -8.6705
-1.86016 -1.86014 -8.67085
1.86013 -1.86016 -8.67089
5.44805 -1.85967 -8.67044
8.6699 -1.85876 -8.66995
11.0292 -1.85782 -8.67151
12.2595 -1.85935 -8.70009
-12.2596 1.85936 -8.70007
-11.0292 1.85777 -8.67148
-8.66994 1.85869 -8.66996
-5.44808 1.85965 -8.67042
-1.86014 1.86015 -8.67081
1.86015 1.86013 -8.67078
5.44811 1.8597 -8.67047
8.66994 1.85865 -8.66994
11.0292 1.8578 -8.67148
12.2596 1.85934 -8.70008
-12.2509 5.45113 -8.69899
-11.0282 5.44363 -8.67093
-8.66943 5.44522 -8.66943
-5.44718 5.44716 -8.67004
-1.8597 5.44809 -8.67048
1.85966 5.44807 -8.67049
5.44717 5.44719 -8.66999
8.66934 5.44521 -8.66945
11.0281 5.44361 -8.67093
12.2509 5.45113 -8.699
-12.2351 8.69653 -8.69655
-11.0283 8.66993 -8.66988
-8.66871 8.66871 -8.66876
-5.44521 8.6694 -8.66946
-1.85869 8.66991 -8.66994
1.85869 8.66991 -8.66992
5.44524 8.66942 -8.66948
8.66872 8.6687 -8.66873
11.0283 8.66991 -8.6699
12.2352 8.69653 -8.69654
-12.2287 11.1116 -8.69405
-11.0353 11.0354 -8.67035
-8.66986 11.0283 -8.66988
-5.44359 11.0282 -8.67093
-1.85781 11.0292 -8.6715
1.85777 11.0292 -8.67151
5.44363 11.0282 -8.67092
8.66992 11.0283 -8.66991
11.0353 11.0354 -8.67035
12.2287 11.1116 -8.69405
-12.3399 12.3399 -8.70513
-11.1116 12.2287 -8.69404
-8.69652 12.2351 -8.69655
-5.45113 12.2509 -8.69899
-1.85934 12.2596 -8.70009
1.85938 12.2595 -8.70008
5.45115 12.2509 -8.69898
8.69653 12.2351 -8.69655
11.1116 12.2287 -8.69405
12.3399 12.3399 -8.70513
-12.3556 -12.3556 -5.44867
-11.1138 -12.2449 -5.44794
-8.69893 -12.2509 -5.45114
-5.45382 -12.2662 -5.45385
-1.86052 -12.2747 -5.45504
1.86053 -12.2747 -5.45504
5.45381 -12.2663 -5.45387
8.69894 -12.2509 -5.45114
11.1139 -12.2449 -5.44795
12.3556 -12.3556 -5.44867
-12.2449 -11.1138 -5.44796
-11.0357 -11.0357 -5.44174
-8.67088 -11.0282 -5.44367
-5.44568 -11.0277 -5.44574
-1.8588 -11.0286 -5.44661
1.85879 -11.0286 -5.44662
5.44565 -11.0278 -5.44573
8.67086 -11.0282 -5.44361
11.0357 -11.0358 -5.44175
12.2448 -11.1139 -5.44793
-12.2509 -8.69893 -5.45114
-11.0282 -8.67088 -5.44361
-8.66944 -8.66943 -5.44528
-5.44717 -8.66998 -5.44714
-1.85969 -8.67046 -5.44808
1.85968 -8.67044 -5.44809
5.44718 -8.67 -5.44712
8.66943 -8.6694 -5.4453
11.0282 -8.6709 -5.44363
12.251 -8.69894 -5.45117
-12.2662 -5.45382 -5.45386
-11.0277 -5.44569 -5.4457
-8.66998 -5.44716 -5.44717
-5.44904 -5.44904 -5.44906
-1.8606 -5.44998 -5.44995
1.86067 -5.44997 -5.44995
5.44912 -5.44906 -5.44911
8.67004 -5.44713 -5.44711
11.0278 -5.4457 -5.44573
12.2663 -5.45382 -5.45385
-12.2747 -1.86053 -5.45506
-11.0286 -1.85881 -5.44664
-8.67046 -1.85969 -5.4481
-5.44998 -1.86063 -5.44999
-1.86113 -1.86114 -5.45083
1.86111 -1.86112 -5.45087
5.44996 -1.86062 -5.44993
8.67047 -1.85967 -5.44813
11.0286 -1.85881 -5.44663
12.2747 -1.8605 -5.45506
-12.2747 1.86056 -5.45503
-11.0286 1.85878 -5.44661
-8.67046 1.85968 -5.44809
-5.44998 1.86065 -5.44993
-1.86115 1.86112 -5.45079
1.8611 1.8611 -5.45078
5.44995 1.86065 -5.44999
8.67045 1.85968 -5.44808
11.0286 1.85878 -5.44661
12.2747 1.86052 -5.45505
-12.2663 5.45382 -5.45385
-11.0277 5.44565 -5.44576
-8.66999 5.4472 -5.44715
-5.44902 5.44911 -5.44908
-1.86063 5.44993 -5.45001
1.86072 5.44996 -5.45001
5.44914 5.44908 -5.44904
8.67006 5.4472 -5.44717
11.0278 5.4457 -5.44575
12.2663 5.45383 -5.45386
-12.2509 8.69894 -5.45115
-11.0282 8.67087 -5.44362
-8.66946 8.66942 -5.44532
-5.44719 8.67005 -5.4472
-1.8597 8.67048 -5.44808
1.85969 8.67049 -5.44807
5.44718 8.67002 -5.44723
8.66937 8.66943 -5.44526
11.0282 8.67083 -5.44365
12.2509 8.69896 -5.45115
-12.2449 11.1139 -5.44796
-11.0358 11.0357 -5.44175
-8.67089 11.0282 -5.44362
-5.44569 11.0278 -5.44575
-1.8588 11.0286 -5.44661
1.85878 11.0286 -5.44662
5.44566 11.0278 -5.44572
8.67087 11.0282 -5.44368
11.0357 11.0357 -5.44174
12.2449 11.1139 -5.44795
-12.3556 12.3556 -5.44867
-11.1139 12.2449 -5.44795
-8.69895 12.2509 -5.45117
-5.45382 12.2663 -5.45384
-1.86052 12.2747 -5.45507
1.86054 12.2747 -5.45506
5.45382 12.2663 -5.45385
8.69895 12.2509 -5.45115
11.1139 12.2449 -5.44796
12.3556 12.3556 -5.44867
-12.3637 -12.3637 -1.85778
-11.1155 -12.2536 -1.85805
-8.70007 -12.2595 -1.85937
-5.45504 -12.2747 -1.86057
-1.86108 -12.283 -1.8611
1.86111 -12.283 -1.86108
5.45499 -12.2747 -1.8606
8.70006 -12.2595 -1.85937
11.1155 -12.2536 -1.85808
12.3637 -12.3637 -1.85777
-12.2536 -11.1155 -1.85809
-11.0369 -11.0369 -1.85685
-8.67149 -11.0292 -1.85776
-5.44661 -11.0286 -1.85883
-1.8593 -11.0294 -1.85931
1.85934 -11.0294 -1.85931
5.44666 -11.0286 -1.85886
8.67152 -11.0292 -1.8578
11.0369 -11.0369 -1.85684
12.2536 -11.1155 -1.85808
-12.2595 -8.70008 -1.85936
-11.0292 -8.6715 -1.85781
-8.66991 -8.66993 -1.85876
-5.44807 -8.67046 -1.85964
-1.86015 -8.67084 -1.86018
1.86014 -8.67087 -1.86017
5.44807 -8.67044 -1.85964
8.66986 -8.66993 -1.85878
11.0292 -8.67148 -1.85779
12.2595 -8.70008 -1.85934
-12.2747 -5.45506 -1.86056
-11.0286 -5.44663 -1.8588
-8.67046 -5.44808 -1.85967
-5.44998 -5.44995 -1.86067
-1.86114 -5.45083 -1.86112
1.86111 -5.45085 -1.86112
5.44995 -5.44996 -1.8607
8.67048 -5.4481 -1.85963
11.0287 -5.44661 -1.85881
12.2747 -5.45504 -1.86056
-12.283 -1.86106 -1.86107
-11.0294 -1.85929 -1.85933
-8.67085 -1.86017 -1.86016
-5.45081 -1.86112 -1.86115
-1.86158 -1.86158 -1.86162
1.8616 -1.86161 -1.86164
5.4508 -1.86112 -1.86109
8.6708 -1.86017 -1.86019
11.0293 -1.8593 -1.85932
12.2829 -1.86109 -1.86108
-12.283 1.86106 -1.86107
-11.0294 1.85933 -1.8593
-8.67084 1.86014 -1.86016
-5.45081 1.86112 -1.86113
-1.86157 1.86159 -1.86153
1.86159 1.86156 -1.86152
5.45081 1.86112 -1.86114
8.67079 1.86013 -1.86016
11.0293 1.85934 -1.85931
12.2829 1.86108 -1.86108
-12.2747 5.45503 -1.86057
-11.0286 5.44665 -1.85887
-8.67045 5.44803 -1.85967
-5.44999 5.44996 -1.86066
-1.86113 5.45076 -1.86118
1.8611 5.45076 -1.86117
5.44993 5.44998 -1.86064
8.67049 5.44803 -1.8597
11.0286 5.44664 -1.8589
12.2747 5.455 -1.86059
-12.2595 8.70001 -1.85941
-11.0292 8.67148 -1.85782
-8.66991 8.66987 -1.85878
-5.44806 8.67049 -1.85969
-1.86013 8.67081 -1.86016
1.86014 8.6708 -1.86014
5.44808 8.6705 -1.85976
8.66987 8.66985 -1.85875
11.0292 8.67151 -1.85781
12.2595 8.70002 -1.85942
-12.2536 11.1155 -1.85807
-11.0369 11.0369 -1.8569
-8.67148 11.0292 -1.85783
-5.44661 11.0287 -1.85887
-1.8593 11.0293 -1.85935
1.85934 11.0293 -1.85934
5.44664 11.0287 -1.85886
8.6715 11.0292 -1.85783
11.0369 11.0369 -1.8569
12.2536 11.1155 -1.85807
-12.3637 12.3637 -1.85779
-11.1155 12.2536 -1.85808
-8.70007 12.2595 -1.85945
-5.45503 12.2747 -1.86058
-1.86109 12.2829 -1.8611
1.86109 12.2829 -1.86109
5.45502 12.2747 -1.86059
8.70005 12.2595 -1.85941
11.1155 12.2536 -1.85807
12.3637 12.3637 -1.8578
-12.3637 -12.3637 1.85771
-11.1155 -12.2536 1.85799
-8.70007 -12.2595 1.85935
-5.45503 -12.2747 1.86052
-1.86108 -12.283 1.86108
1.86109 -12.2829 1.86109
5.45499 -12.2747 1.86051
8.70004 -12.2595 1.85936
11.1155 -12.2536 1.85801
12.3637 -12.3637 1.85772
-12.2536 -11.1155 1.85804
-11.0369 -11.0369 1.85683
-8.67151 -11.0292 1.8578
-5.44662 -11.0286 1.85875
-1.85931 -11.0294 1.85929
1.85934 -11.0294 1.85929
5.44666 -11.0287 1.85877
8.67151 -11.0292 1.85785
11.0369 -11.0369 1.85684
12.2536 -11.1155 1.858
-12.2595 -8.70007 1.85935
-11.0292 -8.6715 1.85783
-8.66992 -8.66992 1.85863
-5.44809 -8.67045 1.85971
-1.86014 -8.67084 1.86013
1.86017 -8.67078 1.86013
5.44806 -8.67047 1.85973
8.66989 -8.6699 1.85862
11.0292 -8.67151 1.85781
12.2596 -8.70008 1.85932
-12.2747 -5.45504 1.86047
-11.0286 -5.44662 1.85876
-8.67045 -5.44806 1.85969
-5.44997 -5.44996 1.86054
-1.86114 -5.45081 1.86115
1.86112 -5.45077 1.86114
5.44992 -5.45 1.86057
8.67048 -5.44805 1.8597
11.0286 -5.44662 1.85875
12.2747 -5.45504 1.86051
-12.283 -1.86105 1.86106
-11.0294 -1.85931 1.85927
-8.67084 -1.86014 1.86011
-5.45081 -1.86115 1.8611
-1.86158 -1.8616 1.86157
1.86159 -1.8615 1.86152
5.45081 -1.86116 1.86113
8.67083 -1.86015 1.86008
11.0293 -1.85932 1.85926
12.283 -1.86106 1.86106
-12.283 1.86109 1.86109
-11.0294 1.85933 1.85929
-8.67083 1.86017 1.86011
-5.45079 1.8611 1.86115
-1.86158 1.86159 1.86163
1.86161 1.86165 1.86166
5.45083 1.86106 1.8611
8.67087 1.86021 1.86016
11.0294 1.85931 1.8593
12.283 1.8611 1.86109
-12.2747 5.45504 1.86047
-11.0286 5.44665 1.85874
-8.67045 5.44808 1.85971
-5.44998 5.44993 1.86062
-1.86113 5.45079 1.86108
1.86111 5.45087 1.86108
5.44993 5.44989 1.86068
8.67046 5.44811 1.85966
11.0286 5.44665 1.85874
12.2747 5.45504 1.8605
-12.2595 8.70003 1.85928
-11.0292 8.67149 1.85779
-8.66991 8.6699 1.85862
-5.44809 8.67048 1.85966
-1.86014 8.67079 1.86013
1.86016 8.67092 1.86014
5.44804 8.67039 1.85961
8.66986 8.66996 1.85867
11.0292 8.67148 1.85783
12.2595 8.70003 1.8593
-12.2536 11.1155 1.85798
-11.0369 11.0369 1.8568
-8.67151 11.0292 1.8578
-5.44662 11.0286 1.85873
-1.85932 11.0293 1.85928
1.85932 11.0294 1.85928
5.44664 11.0285 1.85877
8.67148 11.0292 1.85774
11.0369 11.0369 1.85677
12.2536 11.1155 1.85797
-12.3637 12.3637 1.85769
-11.1155 12.2536 1.858
-8.70007 12.2595 1.8593
-5.45502 12.2747 1.86052
-1.8611 12.2829 1.86108
1.86109 12.283 1.86108
5.45501 12.2746 1.86049
8.70004 12.2596 1.85928
11.1155 12.2536 1.85797
12.3637 12.3637 1.85772
-12.3556 -12.3556 5.44859
-11.1139 -12.2449 5.4479
-8.69894 -12.2509 5.45109
-5.45382 -12.2663 5.45376
-1.86052 -12.2747 5.45502
1.86054 -12.2747 5.45502
5.45384 -12.2662 5.45376
8.69894 -12.2509 5.45112
11.1139 -12.2449 5.44789
12.3556 -12.3556 5.44859
-12.2449 -11.1139 5.4479
-11.0357 -11.0358 5.44164
-8.67089 -11.0282 5.44364
-5.44568 -11.0278 5.44563
-1.85881 -11.0286 5.44659
1.85878 -11.0286 5.44658
5.44565 -11.0277 5.44562
8.67086 -11.0282 5.44365
11.0357 -11.0358 5.44165
12.2448 -11.1139 5.4479
-12.2509 -8.69896 5.45112
-11.0282 -8.67091 5.44362
-8.66943 -8.66943 5.44517
-5.44716 -8.67 5.44724
-1.85969 -8.67044 5.44803
1.85967 -8.67048 5.44802
5.44719 -8.66999 5.44722
8.66943 -8.66945 5.44514
11.0282 -8.6709 5.44365
12.2509 -8.69895 5.45112
-12.2663 -5.45384 5.45375
-11.0277 -5.44569 5.44569
-8.66999 -5.44717 5.44722
-5.44902 -5.44903 5.44894
-1.86065 -5.44996 5.44999
1.86068 -5.44998 5.44999
5.4491 -5.44902 5.449
8.67004 -5.44717 5.44724
11.0278 -5.44568 5.44563
12.2663 -5.45383 5.45377
-12.2747 -1.86053 5.45501
-11.0286 -1.8588 5.44654
-8.67044 -1.85969 5.44802
-5.44997 -1.86062 5.45
-1.86113 -1.86113 5.45077
1.86111 -1.86117 5.45074
5.44996 -1.86061 5.44999
8.67047 -1.85969 5.44799
11.0286 -1.85881 5.44656
12.2747 -1.86055 5.45501
-12.2747 1.86053 5.455
-11.0286 1.85876 5.44657
-8.67045 1.85967 5.44801
-5.44998 1.86066 5.44994
-1.86114 1.86111 5.45084
1.8611 1.86107 5.45085
5.44991 1.86068 5.44992
8.67044 1.85966 5.448
11.0286 1.85878 5.44662
12.2747 1.86051 5.455
-12.2662 5.45381 5.4538
-11.0277 5.44565 5.44561
-8.66997 5.44716 5.44722
-5.44901 5.44909 5.44904
-1.86062 5.44997 5.4499
1.86071 5.44991 5.44996
5.44909 5.44914 5.44906
8.67007 5.44715 5.44721
11.0278 5.44568 5.4456
12.2663 5.45387 5.45378
-12.251 8.69894 5.45111
-11.0282 8.67083 5.44361
-8.66944 8.6694 5.44515
-5.44717 8.67002 5.44719
-1.85969 8.67047 5.448
1.85966 8.67043 5.44803
5.4472 8.67006 5.44713
8.66942 8.66937 5.44517
11.0282 8.67085 5.44362
12.2509 8.69899 5.45111
-12.2449 11.1139 5.44793
-11.0357 11.0357 5.44162
-8.67088 11.0282 5.44362
-5.44568 11.0278 5.44562
-1.8588 11.0286 5.44658
1.85881 11.0286 5.44657
5.44569 11.0278 5.44563
8.67085 11.0281 5.44361
11.0357 11.0357 5.44166
12.2449 11.1139 5.44793
-12.3556 12.3556 5.44859
-11.1139 12.2448 5.44792
-8.69895 12.2509 5.45109
-5.45382 12.2663 5.45376
-1.86052 12.2747 5.45498
1.86055 12.2746 5.45499
5.45386 12.2663 5.45377
8.699 12.2509 5.4511
11.1139 12.2449 5.44792
12.3556 12.3556 5.44858
-12.3399 -12.3399 8.7051
-11.1116 -12.2287 8.69397
-8.69652 -12.2351 8.69644