# vtk DataFile Version 3.0 
Lennard-Jones particle simulation 
ASCII 
DATASET UNSTRUCTURED_GRID 
POINTS 1000 float 
-3.00905 -3.00905 -3.00906
-1.50609 -2.99605 -2.99605
0.0918806 -2.99622 -2.99622
1.81231 -2.99746 -2.99746
3.59757 -2.9982 -2.99821
5.40244 -2.9982 -2.9982
7.1877 -2.99746 -2.99746
8.90812 -2.99621 -2.99622
10.5061 -2.99605 -2.99605
12.0091 -3.00905 -3.00906
-2.99605 -1.50609 -2.99605
-1.50086 -1.50086 -2.97769
0.0933965 -1.5017 -2.97669
1.81242 -1.50271 -2.97758
3.59751 -1.50325 -2.97824
5.40248 -1.50325 -2.97824
7.18758 -1.50271 -2.97758
8.9066 -1.5017 -2.97668
10.5009 -1.50086 -2.97769
11.996 -1.50609 -2.99605
-2.99621 0.091879 -2.99622
-1.5017 0.0933971 -2.97668
0.0922062 0.0922059 -2.97534
1.81147 0.0911394 -2.9761
3.59717 0.090647 -2.97674
5.40283 0.0906475 -2.97674
7.18854 0.0911405 -2.9761
8.90779 0.0922061 -2.97534
10.5017 0.0934009 -2.97669
11.9962 0.0918826 -2.99622
-2.99746 1.81231 -2.99746
-1.50271 1.81241 -2.97758
0.0911395 1.81147 -2.97611
1.81065 1.81065 -2.97678
3.59686 1.81027 -2.97739
5.40314 1.81027 -2.97739
7.18935 1.81065 -2.97679
8.90886 1.81147 -2.9761
10.5027 1.81242 -2.97758
11.9975 1.81231 -2.99746
-2.9982 3.59757 -2.99821
-1.50325 3.59751 -2.97825
0.0906433 3.59718 -2.97674
1.81027 3.59686 -2.9774
3.59671 3.59672 -2.97797
5.40329 3.59671 -2.97797
7.18973 3.59687 -2.97739
8.90935 3.59717 -2.97674
10.5032 3.59751 -2.97825
11.9982 3.59757 -2.9982
-2.9982 5.40243 -2.9982
-1.50325 5.40249 -2.97824
0.0906453 5.40283 -2.97674
1.81027 5.40313 -2.97738
3.59672 5.40328 -2.97796
5.40329 5.40328 -2.97796
7.18974 5.40313 -2.97739
8.90936 5.40283 -2.97673
10.5033 5.40249 -2.97825
11.9982 5.40244 -2.9982
-2.99746 7.1877 -2.99747
-1.50272 7.18759 -2.97759
0.0911355 7.18854 -2.9761
1.81065 7.18934 -2.97679
3.59686 7.18973 -2.97739
5.40313 7.18973 -2.97739
7.18934 7.18934 -2.97678
8.90886 7.18853 -2.97611
10.5027 7.18758 -2.97758
11.9975 7.18769 -2.99746
-2.99622 8.90812 -2.99622
-1.5017 8.9066 -2.97668
0.0922053 8.9078 -2.97535
1.81147 8.90886 -2.97611
3.59718 8.90936 -2.97674
5.40283 8.90936 -2.97674
7.18854 8.90886 -2.97611
8.90779 8.90779 -2.97534
10.5017 8.90661 -2.97668
11.9962 8.90812 -2.99622
-2.99605 10.5061 -2.99605
-1.50086 10.5009 -2.97769
0.093396 10.5017 -2.97668
1.81241 10.5027 -2.97759
3.59752 10.5033 -2.97825
5.40248 10.5033 -2.97825
7.18759 10.5027 -2.97758
8.9066 10.5017 -2.97669
10.5009 10.5009 -2.97769
11.996 10.5061 -2.99605
-3.00906 12.0091 -3.00906
-1.50609 11.996 -2.99605
0.0918796 11.9962 -2.99622
1.81231 11.9975 -2.99746
3.59757 11.9982 -2.99821
5.40244 11.9982 -2.99821
7.18769 11.9975 -2.99746
8.90812 11.9962 -2.99622
10.5061 11.996 -2.99605
12.0091 12.0091 -3.00906
-2.99605 -2.99605 -1.50609
-1.50086 -2.97769 -1.50086
0.0933955 -2.97668 -1.5017
1.81242 -2.97758 -1.50272
3.59751 -2.97825 -1.50325
5.40248 -2.97825 -1.50325
7.18759 -2.97758 -1.50272
8.9066 -2.97668 -1.5017
10.5009 -2.97769 -1.50086
11.996 -2.99605 -1.50609
-2.97769 -1.50086 -1.50086
-1.49215 -1.49215 -1.49215
0.0969241 -1.49217 -1.49217
1.81352 -1.49287 -1.49287
3.59775 -1.4933 -1.4933
5.40226 -1.4933 -1.4933
7.18647 -1.49287 -1.49287
8.90308 -1.49217 -1.49217
10.4922 -1.49215 -1.49215
11.9777 -1.50086 -1.50086
-2.97669 0.0933982 -1.5017
-1.49217 0.0969244 -1.49217
0.096195 0.0961979 -1.49196
1.81281 0.0953238 -1.49255
3.59747 0.0948966 -1.49296
5.40253 0.094898 -1.49296
7.1872 0.0953224 -1.49255
8.90381 0.096198 -1.49197
10.4922 0.0969232 -1.49217
11.9767 0.093396 -1.5017
-2.97758 1.81242 -1.50272
-1.49286 1.81353 -1.49287
0.0953234 1.81281 -1.49256
1.81208 1.81208 -1.49309
3.5972 1.81173 -1.49348
5.4028 1.81173 -1.49348
7.18792 1.81208 -1.4931
8.90468 1.81281 -1.49255
10.4929 1.81352 -1.49287
11.9776 1.81241 -1.50271
-2.97824 3.59751 -1.50325
-1.4933 3.59775 -1.4933
0.0948973 3.59747 -1.49296
1.81173 3.59719 -1.49349
3.59705 3.59705 -1.49384
5.40295 3.59706 -1.49385
7.18828 3.59719 -1.49347
8.9051 3.59748 -1.49296
10.4933 3.59775 -1.4933
11.9783 3.59751 -1.50325
-2.97825 5.40249 -1.50324
-1.4933 5.40225 -1.4933
0.0948915 5.40253 -1.49296
1.81173 5.40281 -1.49347
3.59705 5.40295 -1.49383
5.40295 5.40295 -1.49383
7.18827 5.40281 -1.49348
8.9051 5.40252 -1.49296
10.4933 5.40225 -1.4933
11.9783 5.40249 -1.50325
-2.97758 7.18759 -1.50272
-1.49286 7.18648 -1.49287
0.0953225 7.18719 -1.49255
1.81208 7.18792 -1.4931
3.5972 7.18827 -1.49348
5.40281 7.18828 -1.49348
7.18792 7.18792 -1.49309
8.90468 7.1872 -1.49256
10.4929 7.18648 -1.49287
11.9776 7.18759 -1.50272
-2.97669 8.9066 -1.5017
-1.49217 8.90308 -1.49217
0.096196 8.90381 -1.49197
1.81281 8.90468 -1.49256
3.59747 8.90511 -1.49296
5.40252 8.90511 -1.49296
7.18719 8.90468 -1.49256
8.90381 8.90381 -1.49196
10.4922 8.90308 -1.49217
11.9767 8.9066 -1.5017
-2.97769 10.5009 -1.50086
-1.49215 10.4922 -1.49215
0.096923 10.4922 -1.49217
1.81352 10.4929 -1.49287
3.59775 10.4933 -1.4933
5.40225 10.4933 -1.4933
7.18647 10.4929 -1.49287
8.90308 10.4922 -1.49218
10.4922 10.4922 -1.49215
11.9777 10.5009 -1.50086
-2.99605 11.996 -1.50609
-1.50086 11.9777 -1.50086
0.0933943 11.9767 -1.5017
1.81241 11.9776 -1.50272
3.59751 11.9783 -1.50325
5.40248 11.9783 -1.50325
7.18759 11.9776 -1.50272
8.9066 11.9767 -1.5017
10.5009 11.9777 -1.50086
11.996 11.996 -1.50609
-2.99622 -2.99622 0.0918762
-1.5017 -2.97669 0.0933967
0.0922026 -2.97534 0.092207
1.81146 -2.97611 0.0911369
3.59717 -2.97674 0.0906454
5.40283 -2.97674 0.0906457
7.18854 -2.9761 0.091137
8.9078 -2.97535 0.092207
10.5017 -2.97669 0.0933937
11.9962 -2.99622 0.0918769
-2.97669 -1.5017 0.093397
-1.49217 -1.49218 0.0969235
0.0961943 -1.49196 0.0961979
1.8128 -1.49256 0.0953188
3.59747 -1.49296 0.0948985
5.40253 -1.49296 0.0948984
7.1872 -1.49255 0.0953203
8.90381 -1.49197 0.0961984
10.4922 -1.49217 0.0969215
11.9767 -1.5017 0.0933942
-2.97534 0.0922038 0.0922059
-1.49196 0.0961947 0.096198
0.0956015 0.0956032 0.0955983
1.81215 0.0947842 0.0947931
3.59722 0.094379 0.0943775
5.40278 0.0943775 0.0943782
7.18785 0.094788 0.0947946
8.9044 0.0955973 0.0955941
10.492 0.0961966 0.0961954
11.9753 0.0922034 0.0922041
-2.97611 1.81147 0.0911377
-1.49256 1.8128 0.0953235
0.0947825 1.81215 0.0947887
1.81145 1.81145 0.0940007
3.59694 1.81111 0.0935991
5.40305 1.81111 0.0936012
7.18855 1.81146 0.0939888
8.90521 1.81214 0.0947953
10.4926 1.8128 0.095322
11.9761 1.81147 0.0911403
-2.97674 3.59717 0.0906412
-1.49296 3.59747 0.0948944
0.0943758 3.59721 0.0943773
1.8111 3.59694 0.0935921
3.5968 3.5968 0.0932106
5.40319 3.5968 0.093204
7.18888 3.59694 0.0936012
8.90561 3.59721 0.0943748
10.493 3.59747 0.0948941
11.9767 3.59717 0.0906417
-2.97675 5.40283 0.0906453
-1.49296 5.40252 0.0948993
0.0943784 5.40278 0.0943761
1.81111 5.40305 0.0936078
3.59681 5.4032 0.0932201
5.4032 5.40319 0.0932239
7.18889 5.40306 0.0935967
8.90562 5.40277 0.0943788
10.493 5.40253 0.0949
11.9767 5.40283 0.0906445
-2.97609 7.18853 0.0911333
-1.49255 7.18719 0.0953178
0.094789 7.18785 0.0947896
1.81145 7.18855 0.0939946
3.59694 7.18889 0.0935938
5.40306 7.18889 0.0935926
7.18855 7.18855 0.0940024
8.9052 7.18785 0.0947853
10.4925 7.18719 0.0953172
11.9761 7.18853 0.0911325
-2.97533 8.9078 0.0922002
-1.49196 8.90381 0.0961966
0.0956062 8.90439 0.0955966
1.81215 8.90521 0.0947844
3.59722 8.90562 0.0943785
5.40278 8.90561 0.094382
7.18785 8.90521 0.0947795
8.90439 8.90439 0.0956024
10.492 8.90381 0.0961926
11.9753 8.9078 0.0922026
-2.97668 10.5017 0.0933919
-1.49217 10.4922 0.096918
0.0962 10.492 0.0961962
1.81281 10.4925 0.0953161
3.59747 10.493 0.0948937
5.40252 10.493 0.0948934
7.1872 10.4925 0.0953196
8.90381 10.492 0.0961904
10.4922 10.4922 0.0969196
11.9767 10.5017 0.0933912
-2.99621 11.9962 0.0918754
-1.50169 11.9767 0.0933924
0.0922086 11.9753 0.0922005
1.81147 11.9761 0.0911353
3.59717 11.9767 0.0906423
5.40283 11.9767 0.0906428
7.18854 11.9761 0.0911355
8.9078 11.9753 0.0922001
10.5017 11.9767 0.0933917
11.9962 11.9962 0.0918734
-2.99745 -2.99745 1.8123
-1.50271 -2.97757 1.81241
0.0911462 -2.9761 1.81147
1.81066 -2.97678 1.81065
3.59687 -2.97739 1.81027
5.40313 -2.97739 1.81027
7.18934 -2.97678 1.81065
8.90885 -2.9761 1.81147
10.5027 -2.97757 1.81241
11.9975 -2.99745 1.81231
-2.97757 -1.5027 1.81241
-1.49286 -1.49286 1.81352
0.0953292 -1.49255 1.8128
1.81208 -1.49309 1.81207
3.5972 -1.49348 1.81173
5.4028 -1.49348 1.81173
7.18791 -1.49309 1.81207
8.90467 -1.49255 1.81281
10.4929 -1.49286 1.81352
11.9776 -1.50271 1.81242
-2.9761 0.0911467 1.81147
-1.49255 0.0953291 1.81281
0.0947873 0.0947906 1.81214
1.81145 0.0940045 1.81146
3.59694 0.0935981 1.81111
5.40306 0.0936009 1.81111
7.18855 0.0940014 1.81146
8.90521 0.0947949 1.81214
10.4926 0.0953259 1.8128
11.9761 0.091145 1.81146
-2.97678 1.81066 1.81065
-1.49309 1.81208 1.81208
0.0940061 1.81146 1.81145
1.81077 1.81077 1.81077
3.59668 1.81042 1.81043
5.40333 1.81043 1.81043
7.18924 1.81077 1.81076
8.90601 1.81146 1.81146
10.4931 1.81208 1.81207
11.9768 1.81066 1.81065
-2.97739 3.59687 1.81026
-1.49348 3.5972 1.81173
0.0935982 3.59694 1.8111
1.81042 3.59668 1.81042
3.59653 3.59653 1.81009
5.40346 3.59654 1.81008
7.18957 3.59668 1.81043
8.9064 3.59695 1.8111
10.4935 3.59719 1.81173
11.9774 3.59687 1.81026
-2.97739 5.40314 1.81027
-1.49348 5.4028 1.81173
0.0935978 5.40306 1.81111
1.81042 5.40333 1.81043
3.59653 5.40346 1.8101
5.40346 5.40346 1.8101
7.18957 5.40332 1.81042
8.9064 5.40306 1.81111
10.4935 5.4028 1.81173
11.9774 5.40313 1.81027
-2.97678 7.18934 1.81065
-1.49309 7.18791 1.81207
0.0940045 7.18855 1.81146
1.81078 7.18924 1.81076
3.59668 7.18957 1.81042
5.40334 7.18957 1.81042
7.18925 7.18924 1.81077
8.90601 7.18855 1.81145
10.4931 7.18792 1.81207
11.9768 7.18934 1.81065
-2.9761 8.90885 1.81147
-1.49256 8.90467 1.8128
0.0947855 8.90521 1.81213
1.81145 8.90601 1.81145
3.59694 8.9064 1.81111
5.40306 8.9064 1.81111
7.18855 8.906 1.81144
8.9052 8.90521 1.81214
10.4925 8.90466 1.8128
11.9761 8.90885 1.81146
-2.97758 10.5027 1.81241
-1.49286 10.4929 1.81352
0.0953277 10.4926 1.8128
1.81208 10.4931 1.81207
3.5972 10.4935 1.81173
5.4028 10.4935 1.81173
7.18791 10.4931 1.81208
8.90467 10.4926 1.81279
[...]
POINT_DATA 1000
SCALARS mass float 
LOOKUP_TABLE default 
1
1
1
1
1
1
1
1
1
1
1
1
1
1
1
1
1
1
1
1
1
1
1
1
1
1
1
1
1
1
1
1
1
1
1
1
1
1
1
1
1
1
1
1
1
1
1
1
1
1
1
1
1
1
1
1
1
1
1
1
1
1
1
1
1
1
1
1
1
1
1
1
1
1
1
1
1
1
1
1
1
1
1
1
1
1
1
1
1
1
1
1
1
1
1
1
1
1
1
1
1
1
1
1
1
1
1
1
1
1
1
1
1
1
1
1
1
1
1
1
1
1
1
1
1
1
1
1
1
1
1
1
1
1
1
1
1
1
1
1
1
1
1
1
1
1
1
1
1
1
1
1
1
1
1
1
1
1
1
1
1
1
1
1
1
1
1
1
1
1
1
1
1
1
1
1
1
1
1
1
1
1
1
1
1
1
1
1
1
1
1
1
1
1
1
1
1
1
1
1
1
1
1
1
1
1
1
1
1
1
1
1
1
1
1
1
1
1
1
1
1
1
1
1
1
1
1
1
1
1
1
1
1
1
1
1
1
1
1
1
1
1
1
1
1
1
1
1
1
1
1
1
1
1
1
1
1
1
1
1
1
1
1
1
1
1
1
1
1
1
1
1
1
1
1
1
1
1
1
1
1
1
1
1
1
1
1
1
1
1
1
1
1
1
1
1
1
1
1
1
1
1
1
1
1
1
1
1
1
1
1
1
1
1
1
1
1
1
1
1
1
1
1
1
1
1
1
1
1
1
1
1
1
1
1
1
1
1
1
1
1
1
1
1
1
1
1
1
1
1
1
1
1
1
1
1
1
1
1
1
1
1
1
1
1
1
1
1
1
1
1
1
1
1
1
1
1
1
1
1
1
1
1
1
1
1
1
1
1
1
1
1
1
1
1
1
1
1
1
1
1
1
1
1
1
1
1
1
1
1
1
1
1
1
1
1
1
1
1
1
1
1
1
1
1
1
1
1
1
1
1
1
1
1
1
1
1
1
1
1
1
1
1
1
1
1
1
1
1
1
1
1
1
1
1
1
1
1
1
1
1
1
1
1
1
1
1
1
1
1
1
1
1
1
1
1
1
1
1
1
1
1
1
1
1
1
1
1
1
1
1
1
1
1
1
1
1
1
1
1
1
1
1
1
1
1
1
1
1
1
1
1
1
1
1
1
1
1
1
1
1
1
1
1
1
1
1
1
1
1
1
1
1
1
1
1
1
1
1
1
1
1
1
1
1
1
1
1
1
1
1
1
1
1
1
1
1
1
1
1
1
1
1
1
1
1
1
1
1
1
1
1
1
1
1
1
1
1
1
1
1
1
1
1
1
1
1
1
1
1
1
1
1
1
1
1
1
1
1
1
1
1
1
1
1
1
1
1
1
1
1
1
1
1
1
1
1
1
1
1
1
1
1
1
1
1
1
1
1
1
1
1
1
1
1
1
1
1
1
1
1
1
1
1
1
1
1
1
1
1
1
1
1
1
1
1
1
1
1
1
1
1
1
1
1
1
1
1
1
1
1
1
1
1
1
1
1
1
1
1
1
1
1
1
1
1
1
1
1
1
1
1
1
1
1
1
1
1
1
1
1
1
1
1
1
1
1
1
1
1
1
1
1
1
1
1
1
1
1
1
1
1
1
1
1
1
1
1
1
1
1
1
1
1
1
1
1
1
1
1
1
1
1
1
1
1
1
1
1
1
1
1
1
1
1
1
1
1
1
1
1
1
1
1
1
1
1
1
1
1
1
1
1
1
1
1
1
1
1
1
1
1
1
1
1
1
1
1
1
1
1
1
1
1
1
1
1
1
1
1
1
1
1
1
1
1
1
1
1
1
1
1
1
1
1
1
1
1
1
1
1
1
1
1
1
1
1
1
1
1
1
1
1
1
1
1
1
1
1
1
1
1
1
1
1
1
1
1
1
1
1
1
1
1
1
1
1
1
1
1
1
1
1
1
1
1
1
1
1
1
1
1
1
1
1
1
1
1
1
1
1
1
1
1
1
1
1
1
1
1
1
1
1
1
1
1
1
1
1
1
1
1
1
1
1
1
1
1
1
1
1
1
1
1
1
1
1
1
1
1
1
1
1
1
1
1
1
1
1
1
1
1
1
1
1
1
1
1
1
1
1
1
1
1
1
1
1
1
1
1
1
1
1
1
1
1
1
1
1
1
1
1
1
1
1
1
1
1
1
1
1
1
1
1
1
1
1
1
1
1
1
1
1
1
1
1
1
1
1
1
1
1
1
1
1
1
1
1
1
1
VECTORS velocity float 
-12.4393 -12.4393 -12.4393
-11.1745 -12.3595 -12.3595
-8.69917 -12.3657 -12.3657
-5.44351 -12.3789 -12.3789
-1.85619 -12.3862 -12.3862
1.85622 -12.3862 -12.3862
5.44356 -12.3789 -12.3789
8.69917 -12.3657 -12.3657
11.1745 -12.3595 -12.3595
12.4393 -12.4393 -12.4393
-12.3595 -11.1745 -12.3595
-11.1317 -11.1317 -12.2549
-8.68701 -11.1318 -12.2579
-5.44209 -11.1342 -12.2713
-1.85631 -11.1358 -12.279
1.85625 -11.1358 -12.279
5.44209 -11.1342 -12.2713
8.687 -11.1318 -12.2579
11.1317 -11.1317 -12.2549
12.3595 -11.1745 -12.3595
-12.3657 -8.69918 -12.3657
-11.1318 -8.687 -12.2579
-8.69018 -8.69018 -12.2601
-5.44557 -8.6931 -12.2731
-1.85767 -8.69439 -12.2808
1.85771 -8.69439 -12.2808
5.44559 -8.6931 -12.2731
8.69017 -8.69018 -12.2601
11.1318 -8.68699 -12.2579
12.3657 -8.69916 -12.3657
-12.3789 -5.44351 -12.3789
-11.1342 -5.4421 -12.2713
-8.69311 -5.44555 -12.2731
-5.44848 -5.44848 -12.2858
-1.85894 -5.44975 -12.2933
1.85893 -5.44975 -12.2933
5.44849 -5.44848 -12.2859
8.6931 -5.44557 -12.2731
11.1343 -5.44208 -12.2713
12.3789 -5.44352 -12.3789
-12.3862 -1.85616 -12.3862
-11.1359 -1.85629 -12.279
-8.69441 -1.85767 -12.2808
-5.44977 -1.85893 -12.2934
-1.8595 -1.85949 -12.3007
1.85951 -1.85949 -12.3007
5.44971 -1.85893 -12.2933
8.69436 -1.85767 -12.2808
11.1358 -1.8563 -12.279
12.3861 -1.85618 -12.3862
-12.3861 1.85617 -12.3861
-11.1358 1.85631 -12.2789
-8.6944 1.8577 -12.2808
-5.44975 1.85892 -12.2933
-1.85947 1.85947 -12.3007
1.8595 1.85948 -12.3007
5.44977 1.85892 -12.2933
8.69442 1.8577 -12.2808
11.1359 1.8563 -12.279
12.3862 1.85619 -12.3862
-12.379 5.44357 -12.379
-11.1342 5.4421 -12.2713
-8.69313 5.44564 -12.2731
-5.44849 5.44845 -12.2859
-1.85894 5.44974 -12.2934
1.85889 5.44973 -12.2934
5.44845 5.44846 -12.2858
8.69311 5.44556 -12.2731
11.1342 5.44208 -12.2713
12.3789 5.44353 -12.379
-12.3657 8.69916 -12.3657
-11.1318 8.68698 -12.2579
-8.69019 8.69018 -12.2601
-5.44557 8.69312 -12.2731
-1.85766 8.6944 -12.2808
1.85771 8.6944 -12.2808
5.44559 8.69312 -12.2732
8.69018 8.69018 -12.2601
11.1318 8.68702 -12.2579
12.3657 8.69917 -12.3657
-12.3595 11.1745 -12.3595
-11.1317 11.1317 -12.2549
-8.68701 11.1318 -12.2579
-5.44209 11.1342 -12.2713
-1.85628 11.1359 -12.279
1.85627 11.1358 -12.279
5.44211 11.1342 -12.2713
8.68699 11.1318 -12.2579
11.1317 11.1317 -12.2549
12.3595 11.1745 -12.3595
-12.4393 12.4393 -12.4393
-11.1745 12.3595 -12.3595
-8.69917 12.3657 -12.3657
-5.44352 12.3789 -12.3789
-1.85618 12.3862 -12.3862
1.85621 12.3862 -12.3862
5.44354 12.3789 -12.379
8.69917 12.3657 -12.3657
11.1745 12.3595 -12.3595
12.4393 12.4393 -12.4393
-12.3595 -12.3595 -11.1745
-11.1317 -12.2549 -11.1317
-8.68701 -12.2579 -11.1318
-5.44208 -12.2713 -11.1342
-1.8563 -12.279 -11.1358
1.85625 -12.279 -11.1358
5.44212 -12.2713 -11.1342
8.68699 -12.2579 -11.1318
11.1317 -12.2549 -11.1317
12.3595 -12.3595 -11.1745
-12.2549 -11.1317 -11.1317
-11.0654 -11.0654 -11.0654
-8.66242 -11.0605 -11.0605
-5.43513 -11.0611 -11.0611
-1.85486 -11.0622 -11.0622
1.85489 -11.0622 -11.0622
5.43508 -11.0611 -11.0611
8.66247 -11.0605 -11.0605
11.0654 -11.0654 -11.0654
12.2549 -11.1317 -11.1317
-12.2579 -8.687 -11.1318
-11.0605 -8.66242 -11.0605
-8.66276 -8.66275 -11.0544
-5.43731 -8.66437 -11.0544
-1.85594 -8.66518 -11.0553
1.85591 -8.66517 -11.0553
5.43732 -8.66438 -11.0544
8.66276 -8.66274 -11.0544
11.0605 -8.66243 -11.0605
12.2579 -8.68701 -11.1318
-12.2713 -5.44209 -11.1342
-11.0611 -5.4351 -11.0611
-8.66439 -5.4373 -11.0544
-5.43964 -5.43964 -11.0541
-1.85697 -5.44065 -11.0549
1.85699 -5.44064 -11.0549
5.43966 -5.43964 -11.0541
8.6644 -5.43729 -11.0543
11.0611 -5.43511 -11.0611
12.2713 -5.44209 -11.1342
-12.279 -1.8563 -11.1359
-11.0622 -1.85486 -11.0622
-8.66517 -1.85592 -11.0553
-5.44065 -1.85702 -11.0549
-1.8575 -1.85751 -11.0556
1.85753 -1.85749 -11.0556
5.44071 -1.85703 -11.0549
8.66519 -1.8559 -11.0554
11.0622 -1.85485 -11.0622
12.279 -1.85629 -11.1358
-12.279 1.85629 -11.1358
-11.0622 1.85486 -11.0622
-8.66521 1.8559 -11.0553
-5.44066 1.85701 -11.0549
-1.85753 1.85753 -11.0556
1.85753 1.85752 -11.0556
5.44069 1.85701 -11.0549
8.66519 1.85589 -11.0553
11.0622 1.85484 -11.0622
12.279 1.85629 -11.1358
-12.2713 5.44211 -11.1343
-11.0611 5.43513 -11.0611
-8.66439 5.43729 -11.0544
-5.43964 5.43963 -11.0541
-1.85698 5.44069 -11.0549
1.857 5.4407 -11.0549
5.43966 5.43964 -11.0541
8.66441 5.43732 -11.0544
11.0611 5.43512 -11.0611
12.2713 5.44212 -11.1343
-12.2579 8.68699 -11.1318
-11.0605 8.66246 -11.0605
-8.66276 8.66279 -11.0544
-5.4373 8.66442 -11.0544
-1.85594 8.6652 -11.0553
1.85589 8.66521 -11.0553
5.4373 8.66441 -11.0544
8.66279 8.6628 -11.0544
11.0605 8.66246 -11.0605
12.2579 8.68699 -11.1318
-12.2549 11.1317 -11.1317
-11.0654 11.0654 -11.0654
-8.66243 11.0605 -11.0605
-5.43514 11.0611 -11.0611
-1.85487 11.0622 -11.0622
1.85489 11.0622 -11.0622
5.43508 11.0611 -11.0611
8.66247 11.0605 -11.0605
11.0654 11.0654 -11.0654
12.2549 11.1317 -11.1317
-12.3595 12.3595 -11.1745
-11.1317 12.2549 -11.1317
-8.68702 12.2579 -11.1318
-5.4421 12.2713 -11.1342
-1.85631 12.279 -11.1359
1.85624 12.279 -11.1359
5.44212 12.2713 -11.1342
8.68699 12.2579 -11.1318
11.1317 12.2549 -11.1317
12.3595 12.3595 -11.1745
-12.3657 -12.3657 -8.69919
-11.1318 -12.2579 -8.68701
-8.6902 -12.26 -8.69017
-5.44559 -12.2732 -8.69312
-1.85768 -12.2808 -8.69439
1.85772 -12.2808 -8.6944
5.4456 -12.2731 -8.69312
8.69019 -12.2601 -8.69016
11.1318 -12.2579 -8.68702
12.3657 -12.3657 -8.69919
-12.2579 -11.1318 -8.68701
-11.0605 -11.0605 -8.66243
-8.66277 -11.0543 -8.66276
-5.43732 -11.0544 -8.6644
-1.85593 -11.0553 -8.66517
1.85591 -11.0553 -8.66517
5.43732 -11.0544 -8.66439
8.6628 -11.0544 -8.66275
11.0605 -11.0605 -8.66244
12.2579 -11.1318 -8.68702
-12.26 -8.6902 -8.69018
-11.0544 -8.66276 -8.66276
-8.66235 -8.66234 -8.66237
-5.43922 -8.66365 -8.6636
-1.85689 -8.66433 -8.66434
1.85687 -8.66434 -8.66434
5.43921 -8.66363 -8.66359
8.66235 -8.66238 -8.66239
11.0543 -8.66276 -8.66277
12.2601 -8.6902 -8.69019
-12.2732 -5.44559 -8.69311
-11.0544 -5.43732 -8.66437
-8.66366 -5.43922 -8.66362
-5.44141 -5.44139 -8.66476
-1.85794 -5.44239 -8.66541
1.85791 -5.4424 -8.66539
5.4414 -5.44136 -8.66482
8.66359 -5.43926 -8.66359
11.0544 -5.43731 -8.66439
12.2731 -5.44559 -8.69311
-12.2808 -1.85769 -8.69441
-11.0554 -1.85592 -8.66519
-8.66434 -1.85693 -8.66434
-5.44241 -1.85794 -8.66545
-1.85844 -1.85842 -8.666
1.8584 -1.85844 -8.66604
5.44235 -1.85793 -8.66539
8.66429 -1.85695 -8.66435
11.0553 -1.85593 -8.66519
12.2808 -1.85768 -8.69441
-12.2808 1.85769 -8.6944
-11.0554 1.85588 -8.66517
-8.66433 1.85688 -8.66435
-5.44238 1.8579 -8.66537
-1.85841 1.85842 -8.66595
1.85843 1.85841 -8.66593
5.44241 1.85796 -8.66542
8.66433 1.85683 -8.66433
11.0553 1.85591 -8.66516
12.2808 1.85767 -8.6944
-12.2731 5.44556 -8.69314
-11.0544 5.43732 -8.6644
-8.66362 5.43919 -8.66362
-5.44139 5.44137 -8.66479
-1.85796 5.44239 -8.66543
1.85792 5.44237 -8.66544
5.44138 5.4414 -8.66474
8.66353 5.43918 -8.66364
11.0543 5.4373 -8.6644
12.273 5.44556 -8.69315
-12.26 8.69018 -8.6902
-11.0543 8.6628 -8.66275
-8.66232 8.66232 -8.66237
-5.43918 8.66359 -8.66365
-1.85688 8.66431 -8.66434
1.85688 8.66431 -8.66431
5.43921 8.66361 -8.66367
8.66233 8.66232 -8.66234
11.0544 8.66279 -8.66277
12.2601 8.69018 -8.69019
-12.2579 11.1318 -8.68703
-11.0605 11.0605 -8.66245
-8.66274 11.0544 -8.66275
-5.43728 11.0543 -8.6644
-1.85592 11.0553 -8.66519
1.85588 11.0553 -8.66519
5.43732 11.0543 -8.66439
8.6628 11.0543 -8.66278
11.0605 11.0605 -8.66244
12.2579 11.1317 -8.68703
-12.3656 12.3657 -8.6992
-11.1318 12.2579 -8.68703
-8.69017 12.2601 -8.6902
-5.44556 12.2731 -8.69313
-1.85767 12.2808 -8.69441
1.85771 12.2808 -8.69441
5.44558 12.2731 -8.69313
8.69018 12.2601 -8.6902
11.1318 12.2579 -8.68703
12.3657 12.3657 -8.69921
-12.3789 -12.3789 -5.44356
-11.1342 -12.2713 -5.4421
-8.69308 -12.2731 -5.44557
-5.44846 -12.2858 -5.4485
-1.85891 -12.2933 -5.44976
1.85892 -12.2933 -5.44976
5.44846 -12.2858 -5.44851
8.69309 -12.2731 -5.44557
11.1342 -12.2713 -5.44211
12.3789 -12.3789 -5.44355
-12.2713 -11.1342 -5.44211
-11.0611 -11.0611 -5.43512
-8.66435 -11.0544 -5.43736
-5.43963 -11.0541 -5.43968
-1.85698 -11.0549 -5.44065
1.85697 -11.0549 -5.44065
5.43959 -11.0541 -5.43967
8.66433 -11.0543 -5.4373
11.061 -11.0611 -5.43513
12.2712 -11.1342 -5.44208
-12.2731 -8.69307 -5.44557
-11.0544 -8.66435 -5.4373
-8.66363 -8.66362 -5.43925
-5.44139 -8.66473 -5.44135
-1.85794 -8.66541 -5.44238
1.85793 -8.66539 -5.44239
5.44139 -8.66475 -5.44133
8.66362 -8.66359 -5.43927
11.0544 -8.66437 -5.43732
12.2731 -8.69308 -5.4456
-12.2858 -5.44846 -5.44851
-11.0541 -5.43963 -5.43964
-8.66473 -5.44137 -5.44138
-5.44348 -5.44348 -5.44351
-1.85891 -5.44451 -5.44448
1.85899 -5.44449 -5.44448
5.44356 -5.44351 -5.44355
8.66479 -5.44134 -5.44132
11.0541 -5.43964 -5.43967
12.2859 -5.44846 -5.44849
-12.2933 -1.85891 -5.44977
-11.0549 -1.85699 -5.44068
-8.66541 -1.85794 -5.4424
-5.44451 -1.85894 -5.44452
-1.85947 -1.85948 -5.44545
1.85945 -1.85946 -5.44548
5.44449 -1.85894 -5.44446
8.66542 -1.85792 -5.44243
11.0549 -1.85699 -5.44066
12.2934 -1.85889 -5.44977
-12.2933 1.85894 -5.44974
-11.0549 1.85696 -5.44064
-8.66541 1.85794 -5.44239
-5.44451 1.85897 -5.44446
-1.85948 1.85946 -5.4454
1.85944 1.85943 -5.44539
5.44448 1.85896 -5.44452
8.6654 1.85793 -5.44238
11.0549 1.85696 -5.44065
12.2933 1.85891 -5.44976
-12.2858 5.44846 -5.44849
-11.0541 5.43959 -5.4397
-8.66474 5.44141 -5.44136
-5.44347 5.44356 -5.44352
-1.85895 5.44446 -5.44454
1.85904 5.44449 -5.44454
5.44358 5.44353 -5.44348
8.66481 5.44142 -5.44138
11.0541 5.43964 -5.43969
12.2859 5.44847 -5.4485
-12.2731 8.69309 -5.44558
-11.0544 8.66434 -5.43731
-8.66365 8.66361 -5.43929
-5.4414 8.6648 -5.44141
-1.85796 8.66543 -5.44238
1.85794 8.66544 -5.44237
5.44139 8.66477 -5.44144
8.66356 8.66362 -5.43923
11.0544 8.6643 -5.43734
12.2731 8.6931 -5.44559
-12.2713 11.1342 -5.44211
-11.0611 11.0611 -5.43513
-8.66437 11.0544 -5.43731
-5.43963 11.0541 -5.43969
-1.85698 11.0549 -5.44065
1.85696 11.0549 -5.44066
5.4396 11.0541 -5.43966
8.66434 11.0544 -5.43737
11.0611 11.0611 -5.43513
12.2713 11.1342 -5.44211
-12.3789 12.3789 -5.44356
-11.1342 12.2713 -5.44211
-8.69309 12.2731 -5.4456
-5.44847 12.2859 -5.44849
-1.85891 12.2934 -5.44978
1.85892 12.2934 -5.44978
5.44846 12.2859 -5.4485
8.69309 12.2731 -5.44558
11.1342 12.2713 -5.44211
12.3789 12.3789 -5.44356
-12.3862 -12.3862 -1.85623
-11.1358 -12.279 -1.8563
-8.6944 -12.2808 -1.85769
-5.44975 -12.2933 -1.85896
-1.85948 -12.3007 -1.8595
1.85951 -12.3007 -1.85948
5.44971 -12.2933 -1.85898
8.69439 -12.2808 -1.8577
11.1358 -12.279 -1.85633
12.3862 -12.3862 -1.85623
-12.279 -11.1358 -1.85634
-11.0622 -11.0622 -1.85487
-8.66517 -11.0553 -1.85587
-5.44065 -11.0549 -1.85701
-1.8575 -11.0556 -1.85751
1.85754 -11.0556 -1.85751
5.44069 -11.0549 -1.85703
8.66521 -11.0553 -1.85591
11.0622 -11.0622 -1.85486
12.279 -11.1358 -1.85632
-12.2808 -8.6944 -1.85769
-11.0553 -8.66518 -1.85591
-8.6643 -8.66433 -1.85695
-5.44237 -8.66541 -1.85789
-1.85842 -8.66599 -1.85845
1.85841 -8.66602 -1.85845
5.44237 -8.66539 -1.85789
8.66426 -8.66433 -1.85697
11.0553 -8.66517 -1.8559
12.2807 -8.6944 -1.85767
-12.2933 -5.44977 -1.85895
-11.0549 -5.44066 -1.85698
-8.66541 -5.44238 -1.85793
-5.44451 -5.44448 -1.85899
-1.85948 -5.44544 -1.85946
1.85945 -5.44546 -1.85946
5.44448 -5.44449 -1.85902
8.66543 -5.4424 -1.85789
11.0549 -5.44064 -1.85699
12.2934 -5.44975 -1.85895
-12.3007 -1.85946 -1.85948
-11.0556 -1.85749 -1.85753
-8.66599 -1.85844 -1.85844
-5.44543 -1.85946 -1.85949
-1.85994 -1.85994 -1.85998
1.85996 -1.85997 -1.86
5.44541 -1.85946 -1.85942
8.66595 -1.85844 -1.85847
11.0556 -1.8575 -1.85752
12.3007 -1.85949 -1.85948
-12.3007 1.85946 -1.85948
-11.0556 1.85753 -1.8575
-8.66598 1.85842 -1.85843
-5.44542 1.85946 -1.85947
-1.85993 1.85995 -1.85989
1.85994 1.85991 -1.85988
5.44542 1.85946 -1.85947
8.66594 1.8584 -1.85844
11.0556 1.85754 -1.85751
12.3007 1.85949 -1.85948
-12.2933 5.44974 -1.85896
-11.0549 5.44068 -1.85704
-8.6654 5.44233 -1.85793
-5.44451 5.44449 -1.85898
-1.85947 5.44538 -1.85951
1.85944 5.44537 -1.85951
5.44446 5.44451 -1.85896
8.66544 5.44233 -1.85796
11.0549 5.44067 -1.85707
12.2934 5.44972 -1.85898
-12.2808 8.69433 -1.85774
-11.0553 8.66517 -1.85593
-8.6643 8.66427 -1.85697
-5.44236 8.66543 -1.85794
-1.85841 8.66596 -1.85843
1.85842 8.66595 -1.85842
5.44238 8.66545 -1.85802
8.66427 8.66425 -1.85694
11.0553 8.66519 -1.85591
12.2807 8.69434 -1.85775
-12.279 11.1358 -1.85632
-11.0622 11.0622 -1.85492
-8.66517 11.0553 -1.85594
-5.44065 11.0549 -1.85705
-1.8575 11.0556 -1.85755
1.85754 11.0555 -1.85754
5.44067 11.055 -1.85703
8.66519 11.0553 -1.85594
11.0622 11.0622 -1.85491
12.279 11.1359 -1.85632
-12.3862 12.3861 -1.85624
-11.1358 12.279 -1.85632
-8.69439 12.2807 -1.85777
-5.44975 12.2934 -1.85897
-1.85949 12.3007 -1.85951
1.8595 12.3006 -1.8595
5.44974 12.2934 -1.85897
8.69438 12.2807 -1.85774
11.1358 12.279 -1.85632
12.3862 12.3861 -1.85626
-12.3862 -12.3862 1.85616
-11.1358 -12.279 1.85624
-8.69439 -12.2808 1.85767
-5.44975 -12.2933 1.85891
-1.85949 -12.3007 1.85948
1.85949 -12.3007 1.85949
5.44971 -12.2934 1.8589
8.69437 -12.2807 1.85769
11.1358 -12.279 1.85626
12.3861 -12.3862 1.85617
-12.279 -11.1358 1.85629
-11.0622 -11.0622 1.85485
-8.66519 -11.0553 1.85591
-5.44065 -11.0549 1.85693
-1.85751 -11.0556 1.85749
1.85754 -11.0556 1.85749
5.44069 -11.0549 1.85695
8.6652 -11.0553 1.85595
11.0622 -11.0622 1.85486
12.279 -11.1358 1.85624
-12.2808 -8.6944 1.85767
-11.0553 -8.66518 1.85594
-8.66431 -8.66432 1.85682
-5.44239 -8.6654 1.85797
-1.85842 -8.66599 1.85841
1.85844 -8.66592 1.8584
5.44236 -8.66542 1.85799
8.66429 -8.66429 1.85681
11.0553 -8.66519 1.85592
12.2808 -8.6944 1.85765
-12.2933 -5.44975 1.85886
-11.0549 -5.44065 1.85693
-8.6654 -5.44236 1.85794
-5.4445 -5.44449 1.85886
-1.85948 -5.44542 1.85949
1.85946 -5.44538 1.85948
5.44445 -5.44453 1.85889
8.66543 -5.44235 1.85796
11.0549 -5.44066 1.85692
12.2933 -5.44975 1.85889
-12.3007 -1.85946 1.85947
-11.0556 -1.85751 1.85747
-8.66599 -1.85842 1.85839
-5.44542 -1.85949 1.85944
-1.85994 -1.85996 1.85993
1.85995 -1.85986 1.85987
5.44542 -1.8595 1.85947
8.66597 -1.85842 1.85836
11.0556 -1.85752 1.85746
12.3007 -1.85947 1.85947
-12.3007 1.85949 1.85949
-11.0556 1.85753 1.85749
-8.66598 1.85845 1.85839
-5.4454 1.85943 1.85948
-1.85994 1.85995 1.85999
1.85997 1.86001 1.86002
5.44545 1.8594 1.85944
8.66601 1.85848 1.85844
11.0556 1.85751 1.8575
12.3007 1.85951 1.85949
-12.2933 5.44976 1.85886
-11.0549 5.44068 1.85692
-8.6654 5.44238 1.85796
-5.44451 5.44446 1.85893
-1.85947 5.44541 1.85942
1.85945 5.44548 1.85942
5.44446 5.44442 1.859
8.66541 5.44241 1.85791
11.0549 5.44068 1.85691
12.2933 5.44976 1.85889
-12.2807 8.69436 1.85761
-11.0553 8.66518 1.8559
-8.66431 8.66429 1.85681
-5.44239 8.66543 1.85792
-1.85841 8.66594 1.85841
1.85844 8.66607 1.85842
5.44234 8.66534 1.85786
8.66426 8.66436 1.85686
11.0553 8.66517 1.85593
12.2807 8.69436 1.85762
-12.279 11.1359 1.85623
-11.0622 11.0622 1.85482
-8.66519 11.0553 1.85591
-5.44065 11.0549 1.85691
-1.85752 11.0556 1.85748
1.85752 11.0557 1.85748
5.44067 11.0548 1.85695
8.66517 11.0554 1.85585
11.0622 11.0622 1.85478
12.279 11.1359 1.85622
-12.3862 12.3862 1.85615
-11.1358 12.279 1.85625
-8.6944 12.2807 1.85763
-5.44974 12.2933 1.8589
-1.8595 12.3007 1.85948
1.8595 12.3008 1.85948
5.44973 12.2932 1.85888
8.69436 12.2808 1.85761
11.1358 12.279 1.85622
12.3861 12.3861 1.85617
-12.3789 -12.3789 5.44347
-11.1342 -12.2713 5.44205
-8.69309 -12.2731 5.44552
-5.44846 -12.2858 5.4484
-1.85891 -12.2933 5.44974
1.85893 -12.2934 5.44973
5.44848 -12.2858 5.4484
8.69309 -12.2731 5.44555
11.1342 -12.2713 5.44204
12.3789 -12.3789 5.44348
-12.2713 -11.1342 5.44205
-11.0611 -11.0611 5.43502
-8.66436 -11.0544 5.43732
-5.43962 -11.0541 5.43957
-1.85699 -11.0549 5.44062
1.85696 -11.0549 5.44061
5.43959 -11.0541 5.43956
8.66434 -11.0544 5.43733
11.061 -11.0611 5.43503
12.2712 -11.1342 5.44206
-12.2731 -8.6931 5.44555
-11.0544 -8.66438 5.43731
-8.66362 -8.66362 5.43914
-5.44137 -8.66475 5.44145
-1.85795 -8.66539 5.44232
1.85792 -8.66543 5.44232
5.4414 -8.66474 5.44143
8.66362 -8.66364 5.43911
11.0543 -8.66437 5.43733
12.2731 -8.6931 5.44555
-12.2858 -5.44848 5.4484
-11.0541 -5.43963 5.43963
-8.66474 -5.44138 5.44143
-5.44347 -5.44347 5.44338
-1.85897 -5.44449 5.44452
1.859 -5.44451 5.44452
5.44354 -5.44347 5.44345
8.66479 -5.44138 5.44145
11.0541 -5.43962 5.43958
12.2859 -5.44847 5.44841
-12.2933 -1.85892 5.44972
-11.0549 -1.85698 5.44057
-8.66539 -1.85794 5.44232
-5.4445 -1.85894 5.44452
-1.85947 -1.85947 5.44538
1.85945 -1.85951 5.44535
5.44449 -1.85893 5.44452
8.66541 -1.85794 5.44229
11.0549 -1.85699 5.4406
12.2933 -1.85893 5.44972
-12.2933 1.85891 5.44972
-11.0549 1.85694 5.44061
-8.6654 1.85792 5.44231
-5.44451 1.85897 5.44447
-1.85948 1.85945 5.44545
1.85944 1.85941 5.44546
5.44444 1.859 5.44445
8.66539 1.85792 5.4423
11.0549 1.85695 5.44066
12.2933 1.8589 5.44972
-12.2858 5.44845 5.44844
-11.0541 5.4396 5.43956
-8.66472 5.44137 5.44143
-5.44345 5.44354 5.44349
-1.85894 5.4445 5.44442
1.85902 5.44444 5.44449
5.44354 5.44358 5.44351
8.66482 5.44136 5.44142
11.0541 5.43962 5.43954
12.2859 5.44851 5.44842
-12.2732 8.69308 5.44554
-11.0544 8.6643 5.4373
-8.66363 8.66359 5.43912
-5.44138 8.66478 5.4414
-1.85795 8.66542 5.4423
1.85792 8.66538 5.44233
5.44141 8.66481 5.44134
8.66361 8.66356 5.43914
11.0544 8.66432 5.43731
12.2731 8.69314 5.44554
-12.2713 11.1342 5.44209
-11.0611 11.0611 5.435
-8.66435 11.0544 5.43731
-5.43963 11.0541 5.43956
-1.85698 11.0549 5.44061
1.85699 11.0549 5.4406
5.43963 11.0541 5.43958
8.66432 11.0543 5.4373
11.0611 11.0611 5.43505
12.2713 11.1342 5.44209
-12.3789 12.3789 5.44348
-11.1342 12.2712 5.44208
-8.69309 12.2731 5.44552
-5.44847 12.2859 5.44841
-1.85891 12.2934 5.4497
1.85894 12.2933 5.4497
5.4485 12.2859 5.44841
8.69314 12.2731 5.44553
11.1342 12.2713 5.44207
12.379 12.3789 5.44347
-12.3657 -12.3657 8.69917
-11.1318 -12.2579 8.68696
-8.69017 -12.26 8.69009
-5.44557 -12.2731 8.69304