# vtk DataFile Version 3.0 
Lennard-Jones particle simulation 
ASCII 
DATASET UNSTRUCTURED_GRID 
POINTS 1000 float 
-4.37247 -4.37247 -4.37248
-2.73358 -4.35009 -4.35009
-0.866354 -4.35151 -4.35151
1.2127 -4.35458 -4.35459
3.39314 -4.35626 -4.35626
5.60687 -4.35625 -4.35626
7.78732 -4.35458 -4.35459
9.86636 -4.3515 -4.35151
11.7336 -4.35009 -4.35009
13.3725 -4.37248 -4.37248
-4.35009 -2.73358 -4.35009
-2.72328 -2.72328 -4.31958
-0.86369 -2.72401 -4.31958
1.21285 -2.72526 -4.32238
3.39304 -2.72598 -4.32404
5.60694 -2.72598 -4.32404
7.78715 -2.72526 -4.32238
9.86369 -2.72401 -4.31958
11.7233 -2.72328 -4.31958
13.3501 -2.73359 -4.35009
-4.35151 -0.866357 -4.35151
-2.72401 -0.863689 -4.31958
-0.865115 -0.865115 -4.31914
1.21156 -0.866425 -4.32174
3.39257 -0.86703 -4.32337
5.60744 -0.86703 -4.32337
7.78844 -0.866423 -4.32174
9.86512 -0.865114 -4.31914
11.724 -0.863684 -4.31958
13.3515 -0.866351 -4.35151
-4.35458 1.2127 -4.35458
-2.72527 1.21284 -4.32238
-0.866425 1.21157 -4.32175
1.21046 1.21046 -4.32422
3.39213 1.20995 -4.32579
5.60787 1.20995 -4.32579
7.78954 1.21046 -4.32424
9.86642 1.21156 -4.32174
11.7253 1.21285 -4.32238
13.3546 1.2127 -4.35458
-4.35626 3.39315 -4.35626
-2.72598 3.39305 -4.32404
-0.867036 3.39257 -4.32336
1.20994 3.39213 -4.3258
3.39192 3.39192 -4.32731
5.60808 3.39192 -4.32732
7.79005 3.39213 -4.32578
9.86702 3.39257 -4.32337
11.726 3.39305 -4.32404
13.3562 3.39315 -4.35625
-4.35625 5.60685 -4.35625
-2.72597 5.60696 -4.32403
-0.867033 5.60744 -4.32337
1.20995 5.60787 -4.32577
3.39193 5.60807 -4.3273
5.60808 5.60808 -4.3273
7.79006 5.60787 -4.32579
9.86704 5.60744 -4.32336
11.726 5.60696 -4.32404
13.3563 5.60686 -4.35625
-4.35459 7.78732 -4.35459
-2.72527 7.78716 -4.32239
-0.866432 7.78846 -4.32175
1.21046 7.78953 -4.32423
3.39213 7.79005 -4.32579
5.60786 7.79005 -4.3258
7.78953 7.78953 -4.32422
9.86642 7.78844 -4.32175
11.7253 7.78715 -4.32239
13.3546 7.78731 -4.35459
-4.35151 9.86635 -4.35151
-2.72401 9.86369 -4.31958
-0.865116 9.86512 -4.31914
1.21156 9.86642 -4.32175
3.39257 9.86704 -4.32336
5.60744 9.86704 -4.32336
7.78844 9.86643 -4.32176
9.86512 9.86512 -4.31914
11.724 9.8637 -4.31958
13.3515 9.86636 -4.35151
-4.35009 11.7336 -4.35009
-2.72329 11.7233 -4.31959
-0.863691 11.724 -4.31958
1.21285 11.7253 -4.32239
3.39305 11.726 -4.32405
5.60695 11.726 -4.32404
7.78716 11.7253 -4.32239
9.86369 11.724 -4.31959
11.7233 11.7233 -4.31959
13.3501 11.7336 -4.35009
-4.37248 13.3725 -4.37248
-2.73359 13.3501 -4.35009
-0.866356 13.3515 -4.35151
1.2127 13.3546 -4.35459
3.39314 13.3563 -4.35626
5.60686 13.3563 -4.35626
7.78731 13.3546 -4.35459
9.86636 13.3515 -4.35151
11.7336 13.3501 -4.35009
13.3725 13.3725 -4.37248
-4.35009 -4.35009 -2.73359
-2.72329 -4.31958 -2.72328
-0.863692 -4.31958 -2.72402
1.21285 -4.32238 -2.72527
3.39304 -4.32404 -2.72598
5.60694 -4.32404 -2.72598
7.78716 -4.32238 -2.72527
9.86369 -4.31958 -2.72402
11.7233 -4.31958 -2.72329
13.3501 -4.35009 -2.73359
-4.31958 -2.72328 -2.72328
-2.70664 -2.70664 -2.70664
-0.857633 -2.70598 -2.70597
1.2146 -2.70671 -2.70671
3.3934 -2.70726 -2.70726
5.6066 -2.70726 -2.70726
7.78539 -2.70671 -2.70671
9.85765 -2.70598 -2.70597
11.7066 -2.70664 -2.70664
13.3196 -2.72328 -2.72329
-4.31959 -0.863687 -2.72401
-2.70598 -0.857633 -2.70597
-0.858268 -0.858263 -2.70495
1.21369 -0.859221 -2.7055
3.39303 -0.859704 -2.70602
5.60697 -0.859702 -2.70602
7.78631 -0.859224 -2.7055
9.85827 -0.858262 -2.70495
11.706 -0.857635 -2.70598
13.3196 -0.863691 -2.72402
-4.32238 1.21285 -2.72527
-2.7067 1.21461 -2.70671
-0.859224 1.21369 -2.70551
1.21275 1.21275 -2.70598
3.39265 1.21231 -2.70647
5.60736 1.21231 -2.70647
7.78725 1.21275 -2.706
9.85923 1.2137 -2.7055
11.7067 1.2146 -2.7067
13.3224 1.21284 -2.72526
-4.32404 3.39305 -2.72598
-2.70726 3.3934 -2.70726
-0.859703 3.39303 -2.70602
1.2123 3.39263 -2.70648
3.39245 3.39245 -2.70691
5.60756 3.39245 -2.70692
7.78771 3.39263 -2.70646
9.8597 3.39303 -2.70603
11.7073 3.39341 -2.70726
13.324 3.39305 -2.72598
-4.32405 5.60695 -2.72597
-2.70727 5.60659 -2.70726
-0.859713 5.60697 -2.70603
1.2123 5.60736 -2.70645
3.39244 5.60756 -2.7069
5.60756 5.60756 -2.7069
7.7877 5.60736 -2.70647
9.8597 5.60696 -2.70602
11.7073 5.60659 -2.70726
13.324 5.60695 -2.72598
-4.32238 7.78716 -2.72528
-2.7067 7.78541 -2.70672
-0.859225 7.7863 -2.70551
1.21275 7.78725 -2.706
3.39264 7.78771 -2.70647
5.60736 7.78771 -2.70648
7.78726 7.78725 -2.70598
9.85923 7.78631 -2.70552
11.7067 7.7854 -2.70671
13.3224 7.78716 -2.72527
-4.31958 9.86369 -2.72402
-2.70598 9.85764 -2.70597
-0.858266 9.85827 -2.70495
1.21369 9.85923 -2.70551
3.39302 9.85971 -2.70602
5.60697 9.85971 -2.70602
7.7863 9.85923 -2.70552
9.85827 9.85828 -2.70494
11.706 9.85764 -2.70598
13.3196 9.86369 -2.72402
-4.31959 11.7233 -2.72329
-2.70664 11.7066 -2.70665
-0.857635 11.706 -2.70598
1.2146 11.7067 -2.70672
3.3934 11.7073 -2.70727
5.6066 11.7073 -2.70727
7.78539 11.7067 -2.70671
9.85765 11.706 -2.70598
11.7066 11.7066 -2.70664
13.3196 11.7233 -2.72329
-4.35009 13.3501 -2.73359
-2.72329 13.3196 -2.72329
-0.863694 13.3196 -2.72402
1.21284 13.3224 -2.72527
3.39304 13.324 -2.72598
5.60694 13.324 -2.72598
7.78716 13.3224 -2.72527
9.86369 13.3196 -2.72402
11.7233 13.3196 -2.72329
13.3501 13.3501 -2.73359
-4.35151 -4.35151 -0.866361
-2.72402 -4.31959 -0.86369
-0.865121 -4.31914 -0.865113
1.21156 -4.32175 -0.866429
3.39257 -4.32337 -0.867032
5.60744 -4.32337 -0.867032
7.78845 -4.32175 -0.866429
9.86512 -4.31915 -0.865112
11.724 -4.31958 -0.863694
13.3515 -4.35151 -0.86636
-4.31959 -2.72402 -0.86369
-2.70598 -2.70598 -0.857634
-0.858269 -2.70494 -0.858264
1.21369 -2.70552 -0.85923
3.39303 -2.70602 -0.859702
5.60697 -2.70602 -0.859702
7.78631 -2.70551 -0.859227
9.85828 -2.70495 -0.858263
11.706 -2.70598 -0.857637
13.3196 -2.72402 -0.863694
-4.31913 -0.865119 -0.865115
-2.70494 -0.858268 -0.858264
-0.85869 -0.858688 -0.858696
1.21287 -0.859561 -0.859547
3.39268 -0.860009 -0.860011
5.60732 -0.860011 -0.86001
7.78713 -0.859555 -0.859544
9.85868 -0.858697 -0.858702
11.7049 -0.858265 -0.858267
13.3191 -0.86512 -0.865118
-4.32176 1.21156 -0.866427
-2.70552 1.21369 -0.859222
-0.859563 1.21287 -0.859553
1.21197 1.21197 -0.860379
3.3923 1.21153 -0.860821
5.60769 1.21153 -0.860818
7.78803 1.21198 -0.860398
9.85954 1.21286 -0.859543
11.7055 1.21369 -0.859225
13.3217 1.21156 -0.866424
-4.32337 3.39256 -0.867039
-2.70603 3.39303 -0.859707
-0.860013 3.39267 -0.860012
1.21153 3.3923 -0.860833
3.3921 3.39211 -0.861244
5.60789 3.39211 -0.861255
7.78845 3.3923 -0.860817
9.86 3.39266 -0.860015
11.706 3.39303 -0.859708
13.3234 3.39257 -0.867038
-4.32338 5.60744 -0.867033
-2.70603 5.60696 -0.8597
-0.86001 5.60732 -0.860014
1.21154 5.60769 -0.860808
3.39211 5.60789 -0.86123
5.60789 5.60789 -0.861224
7.78847 5.60771 -0.860825
9.86001 5.60731 -0.860009
11.706 5.60697 -0.859699
13.3234 5.60743 -0.867034
-4.32174 7.78843 -0.866435
-2.7055 7.78631 -0.859231
-0.859553 7.78712 -0.859552
1.21197 7.78802 -0.860388
3.39229 7.78846 -0.860829
5.6077 7.78846 -0.860831
7.78802 7.78803 -0.860375
9.85953 7.78712 -0.859559
11.7055 7.7863 -0.859231
13.3217 7.78843 -0.866436
-4.31913 9.86512 -0.865123
-2.70493 9.85828 -0.858264
-0.858683 9.85868 -0.858698
1.21288 9.85954 -0.85956
3.39268 9.86 -0.86001
5.60732 9.86 -0.860004
7.78713 9.85955 -0.859567
9.85868 9.85868 -0.858688
11.7049 9.85827 -0.858271
13.3191 9.86512 -0.86512
-4.31958 11.724 -0.863697
-2.70597 11.706 -0.857642
-0.85826 11.7049 -0.858265
1.2137 11.7055 -0.859233
3.39303 11.706 -0.859708
5.60696 11.706 -0.859709
7.78631 11.7055 -0.859227
9.85827 11.7049 -0.858274
11.706 11.706 -0.85764
13.3196 11.724 -0.863698
-4.3515 13.3515 -0.866363
-2.72401 13.3196 -0.863696
-0.865111 13.3191 -0.865123
1.21157 13.3217 -0.866432
3.39257 13.3234 -0.867038
5.60744 13.3234 -0.867037
7.78844 13.3217 -0.866431
9.86512 13.3191 -0.865124
11.724 13.3196 -0.863698
13.3515 13.3515 -0.866366
-4.35457 -4.35457 1.21269
-2.72525 -4.32237 1.21284
-0.866415 -4.32174 1.21156
1.21047 -4.32422 1.21045
3.39214 -4.32579 1.20994
5.60787 -4.32579 1.20994
7.78953 -4.32422 1.21045
9.86641 -4.32174 1.21156
11.7253 -4.32237 1.21284
13.3546 -4.35457 1.21269
-4.32237 -2.72525 1.21284
-2.70669 -2.70669 1.2146
-0.859214 -2.7055 1.21368
1.21275 -2.70598 1.21274
3.39265 -2.70647 1.21231
5.60735 -2.70647 1.2123
7.78724 -2.70599 1.21274
9.85921 -2.7055 1.2137
11.7067 -2.7067 1.2146
13.3224 -2.72526 1.21285
-4.32174 -0.866414 1.21156
-2.70551 -0.859214 1.21369
-0.859556 -0.859551 1.21286
1.21197 -0.860372 1.21199
3.3923 -0.860822 1.21153
5.6077 -0.860818 1.21153
7.78803 -0.860377 1.21199
9.85955 -0.859544 1.21285
11.7055 -0.85922 1.21369
13.3218 -0.866417 1.21156
-4.32422 1.21047 1.21045
-2.70598 1.21275 1.21275
-0.86037 1.21198 1.21198
1.2111 1.2111 1.21109
3.39194 1.21065 1.21066
5.60808 1.21066 1.21066
7.78892 1.21109 1.21108
9.86039 1.21199 1.21199
11.706 1.21275 1.21274
13.3242 1.21047 1.21046
-4.32579 3.39214 1.20994
-2.70647 3.39264 1.2123
-0.860822 3.3923 1.21153
1.21065 3.39194 1.21065
3.39174 3.39173 1.21023
5.60826 3.39174 1.21022
7.78934 3.39194 1.21066
9.86082 3.39231 1.21152
11.7065 3.39264 1.2123
13.3258 3.39214 1.20994
-4.32579 5.60787 1.20995
-2.70647 5.60735 1.21231
-0.860823 5.6077 1.21153
1.21065 5.60807 1.21067
3.39173 5.60826 1.21024
5.60825 5.60826 1.21025
7.78934 5.60807 1.21065
9.86082 5.6077 1.21153
11.7065 5.60735 1.21231
13.3258 5.60786 1.20994
-4.32422 7.78954 1.21045
-2.70598 7.78724 1.21273
-0.860373 7.78803 1.21198
1.2111 7.78892 1.21109
3.39193 7.78934 1.21064
5.60809 7.78934 1.21064
7.78893 7.78891 1.2111
9.8604 7.78803 1.21198
11.706 7.78725 1.21273
13.3242 7.78954 1.21045
-4.32175 9.86642 1.21156
-2.70551 9.85921 1.21369
-0.859559 9.85955 1.21285
1.21197 9.8604 1.21197
3.39229 9.86082 1.21153
5.6077 9.86083 1.21154
7.78803 9.86038 1.21196
9.85954 9.85955 1.21286
11.7055 9.8592 1.21368
13.3217 9.86642 1.21156
-4.32237 11.7253 1.21284
-2.7067 11.7067 1.2146
-0.859217 11.7055 1.21369
1.21275 11.706 1.21274
3.39265 11.7065 1.2123
5.60735 11.7065 1.2123
7.78724 11.706 1.21274
[...]
POINT_DATA 1000
SCALARS mass float 
LOOKUP_TABLE default 
1
1
1
1
1
1
1
1
1
1
1
1
1
1
1
1
1
1
1
1
1
1
1
1
1
1
1
1
1
1
1
1
1
1
1
1
1
1
1
1
1
1
1
1
1
1
1
1
1
1
1
1
1
1
1
1
1
1
1
1
1
1
1
1
1
1
1
1
1
1
1
1
1
1
1
1
1
1
1
1
1
1
1
1
1
1
1
1
1
1
1
1
1
1
1
1
1
1
1
1
1
1
1
1
1
1
1
1
1
1
1
1
1
1
1
1
1
1
1
1
1
1
1
1
1
1
1
1
1
1
1
1
1
1
1
1
1
1
1
1
1
1
1
1
1
1
1
1
1
1
1
1
1
1
1
1
1
1
1
1
1
1
1
1
1
1
1
1
1
1
1
1
1
1
1
1
1
1
1
1
1
1
1
1
1
1
1
1
1
1
1
1
1
1
1
1
1
1
1
1
1
1
1
1
1
1
1
1
1
1
1
1
1
1
1
1
1
1
1
1
1
1
1
1
1
1
1
1
1
1
1
1
1
1
1
1
1
1
1
1
1
1
1
1
1
1
1
1
1
1
1
1
1
1
1
1
1
1
1
1
1
1
1
1
1
1
1
1
1
1
1
1
1
1
1
1
1
1
1
1
1
1
1
1
1
1
1
1
1
1
1
1
1
1
1
1
1
1
1
1
1
1
1
1
1
1
1
1
1
1
1
1
1
1
1
1
1
1
1
1
1
1
1
1
1
1
1
1
1
1
1
1
1
1
1
1
1
1
1
1
1
1
1
1
1
1
1
1
1
1
1
1
1
1
1
1
1
1
1
1
1
1
1
1
1
1
1
1
1
1
1
1
1
1
1
1
1
1
1
1
1
1
1
1
1
1
1
1
1
1
1
1
1
1
1
1
1
1
1
1
1
1
1
1
1
1
1
1
1
1
1
1
1
1
1
1
1
1
1
1
1
1
1
1
1
1
1
1
1
1
1
1
1
1
1
1
1
1
1
1
1
1
1
1
1
1
1
1
1
1
1
1
1
1
1
1
1
1
1
1
1
1
1
1
1
1
1
1
1
1
1
1
1
1
1
1
1
1
1
1
1
1
1
1
1
1
1
1
1
1
1
1
1
1
1
1
1
1
1
1
1
1
1
1
1
1
1
1
1
1
1
1
1
1
1
1
1
1
1
1
1
1
1
1
1
1
1
1
1
1
1
1
1
1
1
1
1
1
1
1
1
1
1
1
1
1
1
1
1
1
1
1
1
1
1
1
1
1
1
1
1
1
1
1
1
1
1
1
1
1
1
1
1
1
1
1
1
1
1
1
1
1
1
1
1
1
1
1
1
1
1
1
1
1
1
1
1
1
1
1
1
1
1
1
1
1
1
1
1
1
1
1
1
1
1
1
1
1
1
1
1
1
1
1
1
1
1
1
1
1
1
1
1
1
1
1
1
1
1
1
1
1
1
1
1
1
1
1
1
1
1
1
1
1
1
1
1
1
1
1
1
1
1
1
1
1
1
1
1
1
1
1
1
1
1
1
1
1
1
1
1
1
1
1
1
1
1
1
1
1
1
1
1
1
1
1
1
1
1
1
1
1
1
1
1
1
1
1
1
1
1
1
1
1
1
1
1
1
1
1
1
1
1
1
1
1
1
1
1
1
1
1
1
1
1
1
1
1
1
1
1
1
1
1
1
1
1
1
1
1
1
1
1
1
1
1
1
1
1
1
1
1
1
1
1
1
1
1
1
1
1
1
1
1
1
1
1
1
1
1
1
1
1
1
1
1
1
1
1
1
1
1
1
1
1
1
1
1
1
1
1
1
1
1
1
1
1
1
1
1
1
1
1
1
1
1
1
1
1
1
1
1
1
1
1
1
1
1
1
1
1
1
1
1
1
1
1
1
1
1
1
1
1
1
1
1
1
1
1
1
1
1
1
1
1
1
1
1
1
1
1
1
1
1
1
1
1
1
1
1
1
1
1
1
1
1
1
1
1
1
1
1
1
1
1
1
1
1
1
1
1
1
1
1
1
1
1
1
1
1
1
1
1
1
1
1
1
1
1
1
1
1
1
1
1
1
1
1
1
1
1
1
1
1
1
1
1
1
1
1
1
1
1
1
1
1
1
1
1
1
1
1
1
1
1
1
1
1
1
1
1
1
1
1
1
1
1
1
1
1
1
1
1
1
1
1
1
1
1
1
1
1
1
1
1
1
1
1
1
1
1
1
1
1
1
1
1
1
1
1
1
1
1
1
1
1
1
1
1
1
VECTORS velocity float 
-12.349 -12.349 -12.349
-11.161 -12.2597 -12.2597
-8.72529 -12.2751 -12.2751
-5.45688 -12.2941 -12.2942
-1.86003 -12.3034 -12.3034
1.86006 -12.3034 -12.3034
5.45693 -12.2941 -12.2942
8.72529 -12.2751 -12.2751
11.161 -12.2597 -12.2597
12.349 -12.349 -12.349
-12.2597 -11.161 -12.2597
-11.1135 -11.1135 -12.1451
-8.71639 -11.1115 -12.1587
-5.45715 -11.1133 -12.1788
-1.86061 -11.1148 -12.1888
1.86055 -11.1148 -12.1888
5.45715 -11.1133 -12.1788
8.71638 -11.1115 -12.1587
11.1135 -11.1135 -12.1451
12.2597 -11.161 -12.2597
-12.2751 -8.72531 -12.2751
-11.1115 -8.71639 -12.1587
-8.7176 -8.71759 -12.1712
-5.45985 -8.71926 -12.1906
-1.86174 -8.7201 -12.2004
1.86178 -8.7201 -12.2004
5.45987 -8.71926 -12.1906
8.71759 -8.71759 -12.1713
11.1115 -8.71637 -12.1587
12.2751 -8.72528 -12.2751
-12.2942 -5.45688 -12.2942
-11.1133 -5.45716 -12.1788
-8.71927 -5.45983 -12.1906
-5.46226 -5.46225 -12.2094
-1.86287 -5.46335 -12.219
1.86287 -5.46335 -12.219
5.46226 -5.46225 -12.2094
8.71926 -5.45985 -12.1906
11.1133 -5.45713 -12.1788
12.2942 -5.45689 -12.2942
-12.3034 -1.86 -12.3034
-11.1148 -1.86059 -12.1888
-8.72012 -1.86174 -12.2004
-5.46337 -1.86286 -12.219
-1.86339 -1.86338 -12.2283
1.86339 -1.86338 -12.2284
5.46331 -1.86286 -12.2189
8.72007 -1.86174 -12.2005
11.1148 -1.8606 -12.1888
12.3034 -1.86002 -12.3034
-12.3034 1.86 -12.3034
-11.1148 1.86061 -12.1888
-8.72011 1.86177 -12.2004
-5.46336 1.86286 -12.2189
-1.86335 1.86336 -12.2283
1.86338 1.86337 -12.2283
5.46337 1.86286 -12.219
8.72013 1.86177 -12.2004
11.1149 1.86061 -12.1888
12.3034 1.86003 -12.3034
-12.2942 5.45694 -12.2942
-11.1133 5.45716 -12.1788
-8.71929 5.45992 -12.1906
-5.46226 5.46222 -12.2094
-1.86287 5.46334 -12.219
1.86283 5.46333 -12.219
5.46223 5.46223 -12.2094
8.71927 5.45984 -12.1906
11.1133 5.45713 -12.1788
12.2941 5.4569 -12.2942
-12.2751 8.72528 -12.2751
-11.1115 8.71636 -12.1587
-8.7176 8.7176 -12.1713
-5.45985 8.71927 -12.1906
-1.86173 8.72012 -12.2004
1.86178 8.72012 -12.2004
5.45987 8.71928 -12.1907
8.71759 8.7176 -12.1712
11.1115 8.71641 -12.1587
12.2751 8.7253 -12.2751
-12.2597 11.161 -12.2597
-11.1135 11.1135 -12.1451
-8.71639 11.1115 -12.1587
-5.45715 11.1133 -12.1788
-1.86058 11.1148 -12.1888
1.86057 11.1148 -12.1888
5.45717 11.1133 -12.1788
8.71637 11.1115 -12.1588
11.1135 11.1135 -12.1451
12.2597 11.161 -12.2597
-12.349 12.349 -12.349
-11.161 12.2597 -12.2597
-8.7253 12.2751 -12.2751
-5.45689 12.2941 -12.2942
-1.86003 12.3034 -12.3034
1.86005 12.3034 -12.3034
5.45691 12.2941 -12.2942
8.7253 12.2751 -12.2751
11.161 12.2597 -12.2597
12.349 12.349 -12.3491
-12.2597 -12.2597 -11.161
-11.1135 -12.1451 -11.1135
-8.7164 -12.1587 -11.1115
-5.45714 -12.1788 -11.1133
-1.8606 -12.1888 -11.1148
1.86055 -12.1888 -11.1148
5.45718 -12.1788 -11.1133
8.71637 -12.1587 -11.1115
11.1135 -12.1451 -11.1135
12.2597 -12.2597 -11.161
-12.1451 -11.1135 -11.1135
-11.0386 -11.0386 -11.0387
-8.69508 -11.0311 -11.0311
-5.45211 -11.0311 -11.0311
-1.8597 -11.0322 -11.0322
1.85973 -11.0322 -11.0322
5.45205 -11.0311 -11.0311
8.69513 -11.0311 -11.0311
11.0387 -11.0387 -11.0387
12.1451 -11.1135 -11.1135
-12.1588 -8.71638 -11.1115
-11.0311 -8.69508 -11.0311
-8.69317 -8.69315 -11.0224
-5.45342 -8.69327 -11.0218
-1.86052 -8.69356 -11.0229
1.8605 -8.69355 -11.0229
5.45343 -8.69328 -11.0218
8.69317 -8.69315 -11.0224
11.0311 -8.69509 -11.0311
12.1587 -8.7164 -11.1115
-12.1788 -5.45715 -11.1133
-11.0311 -5.45208 -11.0311
-8.69329 -5.45341 -11.0219
-5.45515 -5.45515 -11.021
-1.86139 -5.45595 -11.0219
1.86141 -5.45595 -11.0219
5.45517 -5.45515 -11.0211
8.6933 -5.45341 -11.0218
11.0311 -5.45209 -11.0311
12.1788 -5.45715 -11.1133
-12.1888 -1.8606 -11.1148
-11.0322 -1.8597 -11.0322
-8.69355 -1.86051 -11.0229
-5.45595 -1.86144 -11.0219
-1.86187 -1.86188 -11.0227
1.8619 -1.86185 -11.0227
5.45601 -1.86145 -11.0219
8.69357 -1.86049 -11.0229
11.0322 -1.85969 -11.0322
12.1888 -1.86059 -11.1148
-12.1888 1.86059 -11.1148
-11.0322 1.85969 -11.0322
-8.69359 1.86049 -11.0229
-5.45597 1.86144 -11.0219
-1.8619 1.8619 -11.0226
1.8619 1.86189 -11.0226
5.45599 1.86143 -11.0219
8.69357 1.86047 -11.0229
11.0322 1.85968 -11.0322
12.1888 1.86058 -11.1148
-12.1788 5.45717 -11.1133
-11.0311 5.45211 -11.0311
-8.69329 5.4534 -11.0219
-5.45515 5.45515 -11.0211
-1.8614 5.456 -11.0219
1.86142 5.45601 -11.0219
5.45518 5.45515 -11.021
8.69332 5.45343 -11.0219
11.0311 5.45209 -11.0311
12.1788 5.45718 -11.1133
-12.1587 8.71638 -11.1115
-11.0311 8.69512 -11.0311
-8.69316 8.69319 -11.0224
-5.45341 8.69332 -11.0219
-1.86053 8.69357 -11.0229
1.86048 8.69358 -11.0229
5.45341 8.69331 -11.0219
8.69319 8.6932 -11.0224
11.0311 8.69511 -11.0311
12.1587 8.71637 -11.1115
-12.1451 11.1135 -11.1135
-11.0387 11.0387 -11.0387
-8.69508 11.0311 -11.0311
-5.45212 11.0311 -11.0311
-1.85971 11.0322 -11.0322
1.85973 11.0322 -11.0322
5.45205 11.0311 -11.0311
8.69513 11.0311 -11.0311
11.0387 11.0387 -11.0387
12.1451 11.1135 -11.1135
-12.2597 12.2597 -11.161
-11.1135 12.1451 -11.1135
-8.7164 12.1587 -11.1115
-5.45715 12.1788 -11.1133
-1.86061 12.1888 -11.1148
1.86054 12.1888 -11.1148
5.45718 12.1788 -11.1133
8.71637 12.1587 -11.1115
11.1135 12.1451 -11.1135
12.2597 12.2598 -11.161
-12.2751 -12.2751 -8.72532
-11.1115 -12.1588 -8.71639
-8.71762 -12.1712 -8.71759
-5.45987 -12.1907 -8.71928
-1.86175 -12.2004 -8.72011
1.86179 -12.2004 -8.72011
5.45988 -12.1906 -8.71928
8.71761 -12.1713 -8.71758
11.1115 -12.1587 -8.7164
12.2751 -12.2751 -8.72531
-12.1588 -11.1115 -8.71639
-11.0311 -11.0311 -8.69508
-8.69317 -11.0224 -8.69316
-5.45343 -11.0219 -8.69331
-1.86052 -11.0229 -8.69355
1.8605 -11.0229 -8.69355
5.45343 -11.0219 -8.69329
8.6932 -11.0224 -8.69315
11.0311 -11.0311 -8.69509
12.1588 -11.1115 -8.7164
-12.1712 -8.71761 -8.71759
-11.0224 -8.69317 -8.69316
-8.69063 -8.69062 -8.69065
-5.45453 -8.69051 -8.69046
-1.86124 -8.6907 -8.6907
1.86123 -8.6907 -8.6907
5.45452 -8.69049 -8.69045
8.69063 -8.69066 -8.69067
11.0224 -8.69316 -8.69317
12.1713 -8.71761 -8.7176
-12.1907 -5.45987 -8.71927
-11.0219 -5.45343 -8.69327
-8.69052 -5.45453 -8.69048
-5.45615 -5.45613 -8.69025
-1.86214 -5.45694 -8.69042
1.86211 -5.45695 -8.6904
5.45615 -5.45611 -8.6903
8.69044 -5.45457 -8.69045
11.0219 -5.45343 -8.69329
12.1906 -5.45987 -8.71926
-12.2005 -1.86176 -8.72013
-11.0229 -1.8605 -8.69357
-8.6907 -1.86129 -8.6907
-5.45696 -1.86214 -8.69046
-1.86259 -1.86257 -8.69054
1.86255 -1.86259 -8.69057
5.4569 -1.86213 -8.6904
8.69065 -1.8613 -8.69071
11.0229 -1.86051 -8.69357
12.2004 -1.86175 -8.72013
-12.2005 1.86176 -8.72011
-11.0229 1.86047 -8.69355
-8.69069 1.86123 -8.69071
-5.45693 1.8621 -8.69038
-1.86256 1.86258 -8.69049
1.86258 1.86256 -8.69047
5.45696 1.86216 -8.69043
8.69069 1.86119 -8.6907
11.0229 1.8605 -8.69354
12.2005 1.86174 -8.72011
-12.1906 5.45984 -8.7193
-11.0218 5.45343 -8.69331
-8.69048 5.4545 -8.69048
-5.45614 5.45612 -8.69027
-1.86216 5.45694 -8.69044
1.86212 5.45692 -8.69045
5.45613 5.45615 -8.69023
8.69039 5.45449 -8.6905
11.0218 5.45341 -8.69331
12.1905 5.45984 -8.71931
-12.1712 8.7176 -8.71762
-11.0224 8.6932 -8.69315
-8.6906 8.69061 -8.69065
-5.45449 8.69044 -8.69051
-1.86123 8.69067 -8.6907
1.86124 8.69067 -8.69067
5.45452 8.69047 -8.69053
8.69061 8.6906 -8.69062
11.0224 8.69319 -8.69317
12.1713 8.71759 -8.71761
-12.1587 11.1115 -8.71642
-11.0311 11.0311 -8.6951
-8.69314 11.0224 -8.69316
-5.45339 11.0218 -8.69331
-1.86051 11.0229 -8.69357
1.86047 11.0229 -8.69357
5.45343 11.0218 -8.69329
8.6932 11.0223 -8.69319
11.0311 11.0311 -8.6951
12.1588 11.1115 -8.71642
-12.2751 12.2751 -8.72533
-11.1115 12.1588 -8.71641
-8.71758 12.1712 -8.71762
-5.45984 12.1906 -8.71929
-1.86174 12.2004 -8.72012
1.86178 12.2004 -8.72012
5.45986 12.1906 -8.71928
8.7176 12.1712 -8.71762
11.1115 12.1587 -8.71642
12.2751 12.2751 -8.72533
-12.2941 -12.2941 -5.45693
-11.1132 -12.1788 -5.45716
-8.71924 -12.1906 -5.45985
-5.46224 -12.2094 -5.46227
-1.86284 -12.219 -5.46336
1.86285 -12.2189 -5.46336
5.46223 -12.2094 -5.46229
8.71924 -12.1906 -5.45985
11.1132 -12.1788 -5.45716
12.2941 -12.2941 -5.45692
-12.1788 -11.1132 -5.45717
-11.0311 -11.0311 -5.4521
-8.69326 -11.0219 -5.45347
-5.45514 -11.021 -5.45519
-1.8614 -11.0219 -5.45595
1.86139 -11.0219 -5.45596
5.4551 -11.021 -5.45519
8.69323 -11.0218 -5.45341
11.031 -11.0311 -5.45211
12.1788 -11.1132 -5.45714
-12.1906 -8.71923 -5.45985
-11.0219 -8.69326 -5.45341
-8.69049 -8.69048 -5.45456
-5.45613 -8.69022 -5.45609
-1.86214 -8.69042 -5.45693
1.86213 -8.6904 -5.45694
5.45614 -8.69023 -5.45608
8.69048 -8.69045 -5.45458
11.0219 -8.69328 -5.45343
12.1906 -8.71924 -5.45988
-12.2094 -5.46224 -5.46228
-11.021 -5.45514 -5.45516
-8.69022 -5.45611 -5.45613
-5.45769 -5.45769 -5.45771
-1.86297 -5.45853 -5.4585
1.86304 -5.45851 -5.45849
5.45777 -5.45771 -5.45776
8.69028 -5.45608 -5.45607
11.0211 -5.45516 -5.45518
12.2094 -5.46224 -5.46227
-12.219 -1.86284 -5.46338
-11.0219 -1.86141 -5.45598
-8.69042 -1.86214 -5.45695
-5.45853 -1.86299 -5.45854
-1.86347 -1.86348 -5.45928
1.86345 -1.86346 -5.45931
5.4585 -1.86299 -5.45848
8.69043 -1.86213 -5.45698
11.0219 -1.86141 -5.45597
12.219 -1.86282 -5.46338
-12.2189 1.86287 -5.46335
-11.0219 1.86138 -5.45595
-8.69042 1.86214 -5.45694
-5.45853 1.86302 -5.45847
-1.86349 1.86346 -5.45924
1.86344 1.86344 -5.45922
5.4585 1.86301 -5.45854
8.69042 1.86213 -5.45693
11.0219 1.86138 -5.45595
12.219 1.86283 -5.46337
-12.2094 5.46224 -5.46227
-11.021 5.4551 -5.45522
-8.69023 5.45615 -5.45611
-5.45767 5.45776 -5.45773
-1.863 5.45848 -5.45856
1.86309 5.45851 -5.45855
5.45779 5.45773 -5.45769
8.6903 5.45616 -5.45612
11.0211 5.45516 -5.45521
12.2094 5.46225 -5.46228
-12.1906 8.71924 -5.45985
-11.0219 8.69324 -5.45342
-8.6905 8.69046 -5.4546
-5.45615 8.69028 -5.45616
-1.86216 8.69044 -5.45693
1.86214 8.69045 -5.45692
5.45614 8.69026 -5.45619
8.69042 8.69048 -5.45454
11.0218 8.6932 -5.45345
12.1906 8.71926 -5.45986
-12.1788 11.1133 -5.45717
-11.0311 11.0311 -5.45211
-8.69327 11.0218 -5.45342
-5.45515 11.0211 -5.4552
-1.8614 11.0219 -5.45595
1.86138 11.0219 -5.45596
5.45511 11.0211 -5.45518
8.69324 11.0219 -5.45348
11.0311 11.0311 -5.4521
12.1788 11.1133 -5.45716
-12.2941 12.2942 -5.45693
-11.1133 12.1788 -5.45717
-8.71925 12.1906 -5.45988
-5.46224 12.2094 -5.46226
-1.86284 12.219 -5.46339
1.86285 12.219 -5.46338
5.46223 12.2094 -5.46227
8.71925 12.1906 -5.45986
11.1133 12.1788 -5.45717
12.2941 12.2942 -5.45693
-12.3034 -12.3034 -1.86008
-11.1148 -12.1888 -1.8606
-8.72011 -12.2004 -1.86176
-5.46336 -12.2189 -1.86289
-1.86337 -12.2283 -1.86339
1.8634 -12.2284 -1.86337
5.46331 -12.2189 -1.86292
8.7201 -12.2004 -1.86177
11.1148 -12.1888 -1.86063
12.3034 -12.3034 -1.86007
-12.1888 -11.1148 -1.86064
-11.0322 -11.0322 -1.85971
-8.69355 -11.0229 -1.86046
-5.45595 -11.0219 -1.86143
-1.86187 -11.0227 -1.86188
1.86191 -11.0227 -1.86188
5.456 -11.0219 -1.86146
8.69358 -11.0229 -1.8605
11.0322 -11.0322 -1.8597
12.1888 -11.1148 -1.86062
-12.2004 -8.72012 -1.86176
-11.0229 -8.69356 -1.8605
-8.69067 -8.69069 -1.8613
-5.45692 -8.69042 -1.86209
-1.86257 -8.69053 -1.8626
1.86256 -8.69056 -1.8626
5.45692 -8.6904 -1.86209
8.69062 -8.69069 -1.86132
11.0228 -8.69355 -1.86049
12.2004 -8.72012 -1.86174
-12.219 -5.46338 -1.86288
-11.0219 -5.45597 -1.8614
-8.69042 -5.45693 -1.86213
-5.45852 -5.4585 -1.86304
-1.86348 -5.45927 -1.86346
1.86345 -5.45929 -1.86346
5.4585 -5.45851 -1.86307
8.69044 -5.45695 -1.86209
11.0219 -5.45595 -1.86141
12.219 -5.46336 -1.86288
-12.2283 -1.86335 -1.86336
-11.0227 -1.86186 -1.8619
-8.69053 -1.86259 -1.86259
-5.45926 -1.86346 -1.86349
-1.8639 -1.8639 -1.86394
1.86391 -1.86393 -1.86396
5.45925 -1.86346 -1.86343
8.69049 -1.86259 -1.86262
11.0226 -1.86187 -1.86189
12.2283 -1.86338 -1.86337
-12.2283 1.86335 -1.86337
-11.0226 1.8619 -1.86187
-8.69052 1.86257 -1.86258
-5.45926 1.86347 -1.86347
-1.86389 1.8639 -1.86384
1.8639 1.86387 -1.86384
5.45925 1.86346 -1.86348
8.69047 1.86255 -1.86259
11.0226 1.86191 -1.86188
12.2283 1.86337 -1.86337
-12.219 5.46335 -1.86289
-11.0219 5.45599 -1.86146
-8.69041 5.45688 -1.86213
-5.45853 5.45851 -1.86303
-1.86347 5.45921 -1.86352
1.86344 5.45921 -1.86351
5.45848 5.45852 -1.86301
8.69045 5.45688 -1.86216
11.0219 5.45598 -1.86149
12.219 5.46332 -1.86291
-12.2004 8.72004 -1.86181
-11.0229 8.69355 -1.86051
-8.69067 8.69063 -1.86132
-5.45691 8.69045 -1.86214
-1.86256 8.6905 -1.86258
1.86257 8.69049 -1.86257
5.45693 8.69045 -1.86222
8.69063 8.69061 -1.8613
11.0229 8.69357 -1.8605
12.2004 8.72005 -1.86182
-12.1888 11.1148 -1.86062
-11.0322 11.0322 -1.85976
-8.69355 11.0229 -1.86052
-5.45595 11.0219 -1.86147
-1.86187 11.0226 -1.86192
1.8619 11.0226 -1.86191
5.45598 11.022 -1.86146
8.69356 11.0228 -1.86052
11.0322 11.0322 -1.85975
12.1888 11.1148 -1.86062
-12.3034 12.3034 -1.86009
-11.1148 12.1888 -1.86062
-8.7201 12.2004 -1.86185
-5.46335 12.219 -1.8629
-1.86338 12.2283 -1.86339
1.86339 12.2283 -1.86339
5.46334 12.219 -1.86291
8.72009 12.2004 -1.86181
11.1148 12.1888 -1.86062
12.3034 12.3034 -1.8601
-12.3034 -12.3034 1.86001
-11.1148 -12.1888 1.86054
-8.7201 -12.2004 1.86175
-5.46335 -12.219 1.86284
-1.86337 -12.2283 1.86337
1.86338 -12.2283 1.86338
5.46331 -12.219 1.86283
8.72008 -12.2004 1.86176
11.1148 -12.1888 1.86056
12.3034 -12.3034 1.86001
-12.1888 -11.1148 1.86059
-11.0322 -11.0322 1.85969
-8.69357 -11.0229 1.8605
-5.45596 -11.0219 1.86135
-1.86188 -11.0227 1.86186
1.86191 -11.0226 1.86186
5.456 -11.0219 1.86137
8.69357 -11.0228 1.86054
11.0322 -11.0322 1.8597
12.1888 -11.1148 1.86054
-12.2004 -8.72011 1.86174
-11.0229 -8.69356 1.86053
-8.69068 -8.69068 1.86117
-5.45694 -8.69041 1.86216
-1.86257 -8.69053 1.86256
1.86259 -8.69046 1.86256
5.4569 -8.69042 1.86219
8.69065 -8.69066 1.86117
11.0229 -8.69357 1.86051
12.2004 -8.72011 1.86172
-12.2189 -5.46336 1.86279
-11.0219 -5.45596 1.86135
-8.6904 -5.45691 1.86214
-5.45852 -5.45851 1.86291
-1.86348 -5.45925 1.86349
1.86347 -5.45921 1.86348
5.45847 -5.45855 1.86294
8.69044 -5.45689 1.86216
11.0219 -5.45596 1.86134
12.2189 -5.46336 1.86282
-12.2283 -1.86335 1.86335
-11.0227 -1.86188 1.86184
-8.69053 -1.86257 1.86254
-5.45926 -1.86349 1.86345
-1.8639 -1.86391 1.86389
1.86391 -1.86381 1.86383
5.45925 -1.8635 1.86347
8.69051 -1.86258 1.86251
11.0226 -1.86189 1.86183
12.2283 -1.86335 1.86335
-12.2283 1.86338 1.86338
-11.0227 1.8619 1.86186
-8.69052 1.8626 1.86254
-5.45924 1.86344 1.86349
-1.8639 1.86391 1.86394
1.86393 1.86396 1.86397
5.45928 1.86341 1.86344
8.69055 1.86263 1.86259
11.0226 1.86188 1.86187
12.2284 1.86339 1.86338
-12.219 5.46336 1.86279
-11.0219 5.45599 1.86134
-8.69041 5.45693 1.86216
-5.45852 5.45848 1.86299
-1.86348 5.45924 1.86343
1.86345 5.45931 1.86343
5.45848 5.45844 1.86305
8.69042 5.45696 1.86211
11.0219 5.45599 1.86134
12.2189 5.46336 1.86282
-12.2004 8.72007 1.86168
-11.0229 8.69355 1.86048
-8.69067 8.69065 1.86117
-5.45694 8.69044 1.86212
-1.86256 8.69048 1.86256
1.86259 8.69061 1.86257
5.45689 8.69035 1.86206
8.69062 8.69072 1.86122
11.0229 8.69354 1.86052
12.2004 8.72007 1.86169
-12.1888 11.1148 1.86053
-11.0322 11.0322 1.85966
-8.69357 11.0229 1.8605
-5.45596 11.0219 1.86133
-1.86189 11.0226 1.86185
1.86189 11.0227 1.86185
5.45598 11.0218 1.86137
8.69355 11.0229 1.86044
11.0322 11.0322 1.85962
12.1888 11.1148 1.86052
-12.3034 12.3034 1.85999
-11.1148 12.1888 1.86055
-8.72011 12.2004 1.8617
-5.46334 12.2189 1.86283
-1.86339 12.2283 1.86337
1.86339 12.2284 1.86337
5.46333 12.2189 1.86281
8.72007 12.2005 1.86168
11.1148 12.1888 1.86052
12.3034 12.3034 1.86001
-12.2941 -12.2941 5.45684
-11.1133 -12.1788 5.45711
-8.71924 -12.1906 5.4598
-5.46224 -12.2094 5.46218
-1.86284 -12.2189 5.46334
1.86286 -12.219 5.46333
5.46226 -12.2094 5.46217
8.71924 -12.1906 5.45982
11.1133 -12.1788 5.4571
12.2942 -12.2941 5.45685
-12.1788 -11.1133 5.45711
-11.0311 -11.0311 5.452
-8.69326 -11.0219 5.45344
-5.45514 -11.021 5.45509
-1.86141 -11.0219 5.45592
1.86138 -11.0219 5.45592
5.45511 -11.021 5.45508
8.69324 -11.0219 5.45345
11.031 -11.0311 5.452
12.1787 -11.1133 5.45711
-12.1906 -8.71926 5.45983
-11.0219 -8.69328 5.45342
-8.69048 -8.69048 5.45445
-5.45611 -8.69023 5.4562
-1.86215 -8.69039 5.45688
1.86212 -8.69043 5.45687
5.45615 -8.69023 5.45617
8.69048 -8.69049 5.45442
11.0218 -8.69327 5.45345
12.1906 -8.71925 5.45983
-12.2094 -5.46225 5.46217
-11.021 -5.45515 5.45514
-8.69023 -5.45612 5.45618
-5.45767 -5.45768 5.45759
-1.86302 -5.45851 5.45853
1.86305 -5.45853 5.45854
5.45775 -5.45767 5.45766
8.69028 -5.45612 5.4562
11.0211 -5.45514 5.45509
12.2094 -5.46225 5.46218
-12.2189 -1.86285 5.46333
-11.0219 -1.8614 5.45587
-8.6904 -1.86214 5.45687
-5.45851 -1.86299 5.45854
-1.86347 -1.86347 5.45922
1.86345 -1.86351 5.45919
5.45851 -1.86298 5.45854
8.69043 -1.86214 5.45684
11.0219 -1.86141 5.4559
12.2189 -1.86286 5.46333
-12.2189 1.86284 5.46332
-11.0219 1.86136 5.45591
-8.6904 1.86212 5.45686
-5.45853 1.86303 5.45849
-1.86348 1.86345 5.45929
1.86344 1.86341 5.45929
5.45846 1.86305 5.45846
8.6904 1.86212 5.45685
11.0219 1.86138 5.45596
12.2189 1.86283 5.46332
-12.2094 5.46223 5.46222
-11.021 5.45511 5.45507
-8.69021 5.45611 5.45618
-5.45766 5.45774 5.45769
-1.86299 5.45852 5.45844
1.86308 5.45846 5.45851
5.45774 5.45779 5.45771
8.6903 5.45611 5.45616
11.0211 5.45513 5.45505
12.2094 5.46229 5.46219
-12.1907 8.71924 5.45982
-11.0219 8.6932 5.45341
-8.69049 8.69044 5.45443
-5.45613 8.69026 5.45615
-1.86215 8.69043 5.45685
1.86212 8.6904 5.45688
5.45616 8.6903 5.45609
8.69047 8.69041 5.45445
11.0219 8.69322 5.45342
12.1906 8.71929 5.45982
-12.1788 11.1133 5.45715
-11.0311 11.031 5.45198
-8.69326 11.0218 5.45342
-5.45514 11.021 5.45508
-1.8614 11.0219 5.45592
1.86141 11.0219 5.45591
5.45515 11.0211 5.45509
8.69322 11.0218 5.45342
11.0311 11.031 5.45203
12.1788 11.1133 5.45715
-12.2941 12.2941 5.45685
-11.1133 12.1788 5.45713
-8.71925 12.1906 5.4598
-5.46224 12.2094 5.46218
-1.86284 12.219 5.4633
1.86287 12.2189 5.4633
5.46227 12.2095 5.46219
8.7193 12.1906 5.45981
11.1133 12.1788 5.45713
12.2942 12.2942 5.45684
-12.2751 -12.2751 8.7253
-11.1115 -12.1587 8.71634
-8.71759 -12.1712 8.71751
-5.45985 -12.1906 8.71919