# vtk DataFile Version 3.0 
Lennard-Jones particle simulation 
ASCII 
DATASET UNSTRUCTURED_GRID 
POINTS 1000 float 
-7.31037 -7.31037 -7.31038
-5.42446 -7.26479 -7.26479
-2.96676 -7.27172 -7.27172
-0.098718 -7.28038 -7.28039
2.94626 -7.2846 -7.2846
6.05375 -7.2846 -7.2846
9.09875 -7.28038 -7.28039
11.9668 -7.27172 -7.27172
14.4245 -7.26479 -7.26479
16.3104 -7.31038 -7.31038
-7.26479 -5.42446 -7.26479
-5.40325 -5.40325 -7.20508
-2.96265 -5.40253 -7.21034
-0.0988229 -5.40384 -7.21911
2.94598 -5.40481 -7.22352
6.05399 -5.40481 -7.22352
9.09883 -5.40384 -7.21911
11.9626 -5.40253 -7.21033
14.4032 -5.40324 -7.20508
16.2648 -5.42447 -7.26479
-7.27172 -2.96677 -7.27172
-5.40253 -2.96265 -7.21033
-2.96388 -2.96388 -7.21469
-0.100604 -2.96537 -7.22298
2.94528 -2.96611 -7.22729
6.05474 -2.96611 -7.22729
9.10061 -2.96537 -7.22298
11.9639 -2.96388 -7.2147
14.4025 -2.96264 -7.21034
16.2717 -2.96675 -7.27173
-7.28039 -0.0987192 -7.28039
-5.40384 -0.0988283 -7.21911
-2.96537 -0.100592 -7.223
-0.102213 -0.102212 -7.23095
2.94459 -0.102968 -7.23512
6.05541 -0.102969 -7.23512
9.10221 -0.102212 -7.23098
11.9654 -0.100601 -7.22298
14.4039 -0.0988161 -7.2191
16.2804 -0.0987249 -7.28038
-7.2846 2.94628 -7.28461
-5.40482 2.94599 -7.22353
-2.96612 2.94528 -7.22729
-0.102978 2.94459 -7.23515
2.94426 2.94426 -7.2392
6.05574 2.94426 -7.23921
9.10296 2.94459 -7.23511
11.9661 2.94528 -7.22731
14.4048 2.94598 -7.22352
16.2846 2.94627 -7.2846
-7.28459 6.05373 -7.28459
-5.40481 6.05402 -7.22351
-2.96612 6.05474 -7.22729
-0.102971 6.05541 -7.23509
2.94427 6.05573 -7.23918
6.05574 6.05573 -7.23918
9.10298 6.05541 -7.23512
11.9661 6.05474 -7.22728
14.4048 6.05402 -7.22352
16.2846 6.05374 -7.2846
-7.28039 9.09875 -7.2804
-5.40385 9.09883 -7.21912
-2.96539 9.10064 -7.22299
-0.102218 9.1022 -7.23097
2.94458 9.10297 -7.23513
6.05539 9.10296 -7.23514
9.1022 9.1022 -7.23095
11.9654 9.1006 -7.223
14.4038 9.09882 -7.21912
16.2804 9.09873 -7.28039
-7.27172 11.9668 -7.27172
-5.40253 11.9626 -7.21033
-2.96388 11.9639 -7.2147
-0.100604 11.9654 -7.223
2.94528 11.9661 -7.22728
6.05474 11.9661 -7.22729
9.10061 11.9654 -7.22301
11.9639 11.9639 -7.21469
14.4025 11.9627 -7.21034
16.2717 11.9668 -7.27172
-7.26479 14.4245 -7.2648
-5.40325 14.4032 -7.20509
-2.96265 14.4025 -7.21034
-0.0988247 14.4038 -7.21912
2.94599 14.4048 -7.22353
6.054 14.4048 -7.22352
9.09884 14.4039 -7.21911
11.9626 14.4025 -7.21035
14.4032 14.4032 -7.20509
16.2648 14.4245 -7.2648
-7.31038 16.3104 -7.31038
-5.42447 16.2648 -7.26479
-2.96676 16.2717 -7.27173
-0.0987238 16.2804 -7.28039
2.94626 16.2846 -7.28461
6.05375 16.2846 -7.28461
9.09873 16.2804 -7.28039
11.9668 16.2717 -7.27173
14.4245 16.2648 -7.2648
16.3104 16.3104 -7.31039
-7.26479 -7.26479 -5.42447
-5.40325 -7.20508 -5.40324
-2.96265 -7.21034 -5.40254
-0.098821 -7.2191 -5.40385
2.94598 -7.22352 -5.40482
6.05399 -7.22352 -5.40481
9.09884 -7.21911 -5.40385
11.9626 -7.21034 -5.40254
14.4032 -7.20508 -5.40326
16.2648 -7.26479 -5.42447
-7.20508 -5.40325 -5.40325
-5.36892 -5.36892 -5.36892
-2.95241 -5.36537 -5.36536
-0.0961543 -5.36572 -5.36573
2.94648 -5.36643 -5.36643
6.05353 -5.36643 -5.36643
9.09614 -5.36572 -5.36573
11.9524 -5.36537 -5.36536
14.3689 -5.36892 -5.36892
16.2051 -5.40325 -5.40325
-7.21035 -2.96264 -5.40254
-5.36538 -2.95241 -5.36536
-2.95204 -2.95203 -5.36123
-0.0971976 -2.95277 -5.36131
2.94596 -2.95324 -5.36199
6.05403 -2.95324 -5.36199
9.0972 -2.95277 -5.36131
11.952 -2.95202 -5.36124
14.3654 -2.95241 -5.36538
16.2103 -2.96265 -5.40254
-7.21909 -0.0988239 -5.40385
-5.36571 -0.0961398 -5.36572
-2.95277 -0.0971944 -5.36133
-0.0984787 -0.0984761 -5.36127
2.94539 -0.0990899 -5.36188
6.05461 -0.0990888 -5.36188
9.09848 -0.0984775 -5.3613
11.9528 -0.0971909 -5.36131
14.3657 -0.096147 -5.36572
16.2191 -0.0988257 -5.40384
-7.22352 2.94598 -5.40482
-5.36643 2.94648 -5.36644
-2.95324 2.94597 -5.36199
-0.0990916 2.94537 -5.3619
2.94509 2.94508 -5.36241
6.05493 2.94509 -5.36242
9.09912 2.94536 -5.36187
11.9532 2.94598 -5.36201
14.3664 2.94649 -5.36643
16.2235 2.94599 -5.40481
-7.22354 6.05401 -5.4048
-5.36645 6.05351 -5.36642
-2.95325 6.05403 -5.36199
-0.0990978 6.05463 -5.36185
2.94507 6.05493 -5.3624
6.05493 6.05492 -5.36239
9.09911 6.05462 -5.36188
11.9532 6.05402 -5.36198
14.3664 6.0535 -5.36643
16.2235 6.05401 -5.40481
-7.2191 9.09883 -5.40386
-5.36571 9.09616 -5.36574
-2.95278 9.09719 -5.36132
-0.0984812 9.09847 -5.3613
2.94539 9.09911 -5.36189
6.05462 9.09912 -5.3619
9.09849 9.09848 -5.36127
11.9528 9.0972 -5.36134
14.3657 9.09615 -5.36573
16.2191 9.09884 -5.40386
-7.21034 11.9626 -5.40255
-5.36538 11.9524 -5.36537
-2.95203 11.952 -5.36124
-0.0971947 11.9528 -5.36134
2.94596 11.9532 -5.36198
6.05402 11.9533 -5.36199
9.09719 11.9528 -5.36135
11.952 11.9521 -5.36123
14.3654 11.9524 -5.36538
16.2103 11.9626 -5.40254
-7.20509 14.4032 -5.40326
-5.36893 14.3689 -5.36894
-2.95241 14.3654 -5.36537
-0.0961588 14.3657 -5.36574
2.94648 14.3664 -5.36644
6.05353 14.3664 -5.36644
9.09614 14.3657 -5.36573
11.9524 14.3654 -5.36538
14.3689 14.3689 -5.36893
16.2051 14.4032 -5.40326
-7.2648 16.2648 -5.42447
-5.40326 16.2051 -5.40325
-2.96266 16.2103 -5.40255
-0.0988266 16.2191 -5.40385
2.94598 16.2235 -5.40482
6.05399 16.2235 -5.40482
9.09884 16.2191 -5.40386
11.9626 16.2103 -5.40255
14.4032 16.2051 -5.40326
16.2648 16.2648 -5.42447
-7.27173 -7.27173 -2.96677
-5.40254 -7.21035 -2.96265
-2.96389 -7.21469 -2.96387
-0.100612 -7.22301 -2.96538
2.94527 -7.2273 -2.96611
6.05475 -7.2273 -2.96611
9.10062 -7.22299 -2.96538
11.9639 -7.2147 -2.96387
14.4026 -7.21034 -2.96266
16.2717 -7.27173 -2.96677
-7.21035 -5.40254 -2.96265
-5.36538 -5.36538 -2.95241
-2.95204 -5.36122 -2.95203
-0.0972018 -5.36134 -2.95278
2.94596 -5.36199 -2.95323
6.05403 -5.36199 -2.95324
9.0972 -5.36133 -2.95278
11.9521 -5.36124 -2.95203
14.3654 -5.36538 -2.95242
16.2104 -5.40254 -2.96266
-7.21468 -2.96389 -2.96388
-5.36122 -2.95203 -2.95203
-2.95134 -2.95134 -2.95135
-0.0981196 -2.95196 -2.95193
2.94549 -2.95238 -2.95238
6.05451 -2.95238 -2.95238
9.09812 -2.95195 -2.95193
11.9513 -2.95135 -2.95136
14.3612 -2.95203 -2.95204
16.2147 -2.96389 -2.96388
-7.22301 -0.10061 -2.96538
-5.36134 -0.0972018 -2.95277
-2.95196 -0.0981202 -2.95194
-0.0993389 -0.0993289 -2.9525
2.94491 -0.0999407 -2.95292
6.05508 -0.0999471 -2.95291
9.09934 -0.0993157 -2.95254
11.9519 -0.0981419 -2.95193
14.3613 -0.0972008 -2.95277
16.223 -0.10061 -2.96537
-7.2273 2.94527 -2.96613
-5.362 2.94597 -2.95324
-2.95239 2.94546 -2.95238
-0.0999522 2.94491 -2.95294
2.94461 2.94463 -2.95331
6.05537 2.94462 -2.95333
9.09992 2.94492 -2.95291
11.9524 2.94545 -2.95239
14.362 2.94596 -2.95325
16.2273 2.94527 -2.96612
-7.22731 6.05473 -2.96612
-5.36201 6.05402 -2.95323
-2.95238 6.05451 -2.95239
-0.0999383 6.05507 -2.9529
2.94463 6.05538 -2.95328
6.05538 6.05537 -2.95327
9.09995 6.0551 -2.95293
11.9524 6.05449 -2.95238
14.362 6.05403 -2.95323
16.2273 6.05472 -2.96612
-7.22298 9.1006 -2.96539
-5.36131 9.0972 -2.95278
-2.95194 9.0981 -2.95194
-0.099332 9.09932 -2.95252
2.9449 9.09994 -2.95293
6.05508 9.09993 -2.95294
9.09933 9.09934 -2.9525
11.9519 9.0981 -2.95196
14.3613 9.0972 -2.95279
16.2229 9.1006 -2.96539
-7.21467 11.9639 -2.96389
-5.36121 11.9521 -2.95203
-2.95133 11.9513 -2.95135
-0.098098 11.9519 -2.95196
2.94549 11.9524 -2.95238
6.05451 11.9524 -2.95237
9.09812 11.9519 -2.95197
11.9513 11.9513 -2.95134
14.3612 11.952 -2.95204
16.2147 11.9639 -2.96389
-7.21033 14.4025 -2.96266
-5.36537 14.3654 -2.95242
-2.95202 14.3612 -2.95203
-0.0971845 14.3613 -2.95279
2.94597 14.362 -2.95325
6.05402 14.362 -2.95325
9.0972 14.3613 -2.95278
11.9521 14.3612 -2.95205
14.3654 14.3654 -2.95242
16.2103 14.4025 -2.96266
-7.27171 16.2717 -2.96678
-5.40252 16.2103 -2.96266
-2.96387 16.2147 -2.96389
-0.100595 16.223 -2.96539
2.94528 16.2273 -2.96612
6.05474 16.2273 -2.96612
9.10061 16.223 -2.96538
11.9639 16.2147 -2.96389
14.4025 16.2103 -2.96266
16.2717 16.2717 -2.96678
-7.28036 -7.28036 -0.0987433
-5.40382 -7.21908 -0.0988287
-2.96536 -7.22298 -0.100604
-0.102203 -7.23094 -0.102224
2.9446 -7.23512 -0.102974
6.05541 -7.23512 -0.102974
9.1022 -7.23095 -0.102231
11.9654 -7.22298 -0.1006
14.4038 -7.21909 -0.0988344
16.2804 -7.28037 -0.0987426
-7.21908 -5.40382 -0.0988335
-5.3657 -5.3657 -0.0961526
-2.95276 -5.36132 -0.0972241
-0.0984718 -5.36127 -0.0984995
2.94539 -5.36188 -0.0990904
6.05461 -5.36188 -0.0990933
9.09845 -5.36128 -0.0984956
11.9527 -5.36131 -0.0971933
14.3657 -5.36571 -0.0961555
16.2191 -5.40383 -0.0988213
-7.22299 -2.96535 -0.100601
-5.36132 -2.95276 -0.0971965
-2.95195 -2.95194 -0.0981349
-0.0993293 -2.95249 -0.0993083
2.94491 -2.95292 -0.0999402
6.05508 -2.95291 -0.0999432
9.09933 -2.9525 -0.0993014
11.9519 -2.95193 -0.0981465
14.3613 -2.95277 -0.0972047
16.223 -2.96536 -0.100617
-7.23094 -0.102202 -0.102227
-5.36126 -0.0984739 -0.0984817
-2.95249 -0.0993185 -0.099327
-0.10051 -0.100507 -0.100524
2.94438 -0.101142 -0.101125
6.05567 -0.101132 -0.101123
9.10056 -0.100523 -0.100549
11.9525 -0.0993024 -0.0992973
14.3613 -0.0984815 -0.0984954
16.231 -0.102206 -0.102219
-7.23512 2.9446 -0.102985
-5.36188 2.94539 -0.0991066
-2.95292 2.94491 -0.0999505
-0.10114 2.94436 -0.101146
2.94405 2.94405 -0.101726
6.05594 2.94406 -0.101743
9.10113 2.94436 -0.101116
11.9529 2.94492 -0.0999626
14.3619 2.94539 -0.0990997
16.2351 2.94461 -0.102983
-7.23512 6.05542 -0.102967
-5.36188 6.0546 -0.0990886
-2.95292 6.05509 -0.0999418
-0.101139 6.05565 -0.101112
2.94404 6.05594 -0.101701
6.05593 6.05593 -0.101693
9.10112 6.05565 -0.101147
11.9529 6.05508 -0.0999382
14.3619 6.0546 -0.0990912
16.2351 6.0554 -0.102977
-7.23095 9.1022 -0.102223
-5.36127 9.09845 -0.0985113
-2.95249 9.09934 -0.0993186
-0.100501 9.10055 -0.100532
2.94436 9.10111 -0.101159
6.05569 9.10113 -0.101156
9.10056 9.10053 -0.100512
11.9525 9.09934 -0.0993268
14.3613 9.09848 -0.0985064
16.231 9.10221 -0.102229
-7.223 11.9654 -0.100607
-5.36133 11.9528 -0.0972022
-2.95196 11.9519 -0.0981565
-0.0993367 11.9525 -0.0993432
2.9449 11.9529 -0.0999421
6.05509 11.9529 -0.0999298
[...]
POINT_DATA 1000
SCALARS mass float 
LOOKUP_TABLE default 
1
1
1
1
1
1
1
1
1
1
1
1
1
1
1
1
1
1
1
1
1
1
1
1
1
1
1
1
1
1
1
1
1
1
1
1
1
1
1
1
1
1
1
1
1
1
1
1
1
1
1
1
1
1
1
1
1
1
1
1
1
1
1
1
1
1
1
1
1
1
1
1
1
1
1
1
1
1
1
1
1
1
1
1
1
1
1
1
1
1
1
1
1
1
1
1
1
1
1
1
1
1
1
1
1
1
1
1
1
1
1
1
1
1
1
1
1
1
1
1
1
1
1
1
1
1
1
1
1
1
1
1
1
1
1
1
1
1
1
1
1
1
1
1
1
1
1
1
1
1
1
1
1
1
1
1
1
1
1
1
1
1
1
1
1
1
1
1
1
1
1
1
1
1
1
1
1
1
1
1
1
1
1
1
1
1
1
1
1
1
1
1
1
1
1
1
1
1
1
1
1
1
1
1
1
1
1
1
1
1
1
1
1
1
1
1
1
1
1
1
1
1
1
1
1
1
1
1
1
1
1
1
1
1
1
1
1
1
1
1
1
1
1
1
1
1
1
1
1
1
1
1
1
1
1
1
1
1
1
1
1
1
1
1
1
1
1
1
1
1
1
1
1
1
1
1
1
1
1
1
1
1
1
1
1
1
1
1
1
1
1
1
1
1
1
1
1
1
1
1
1
1
1
1
1
1
1
1
1
1
1
1
1
1
1
1
1
1
1
1
1
1
1
1
1
1
1
1
1
1
1
1
1
1
1
1
1
1
1
1
1
1
1
1
1
1
1
1
1
1
1
1
1
1
1
1
1
1
1
1
1
1
1
1
1
1
1
1
1
1
1
1
1
1
1
1
1
1
1
1
1
1
1
1
1
1
1
1
1
1
1
1
1
1
1
1
1
1
1
1
1
1
1
1
1
1
1
1
1
1
1
1
1
1
1
1
1
1
1
1
1
1
1
1
1
1
1
1
1
1
1
1
1
1
1
1
1
1
1
1
1
1
1
1
1
1
1
1
1
1
1
1
1
1
1
1
1
1
1
1
1
1
1
1
1
1
1
1
1
1
1
1
1
1
1
1
1
1
1
1
1
1
1
1
1
1
1
1
1
1
1
1
1
1
1
1
1
1
1
1
1
1
1
1
1
1
1
1
1
1
1
1
1
1
1
1
1
1
1
1
1
1
1
1
1
1
1
1
1
1
1
1
1
1
1
1
1
1
1
1
1
1
1
1
1
1
1
1
1
1
1
1
1
1
1
1
1
1
1
1
1
1
1
1
1
1
1
1
1
1
1
1
1
1
1
1
1
1
1
1
1
1
1
1
1
1
1
1
1
1
1
1
1
1
1
1
1
1
1
1
1
1
1
1
1
1
1
1
1
1
1
1
1
1
1
1
1
1
1
1
1
1
1
1
1
1
1
1
1
1
1
1
1
1
1
1
1
1
1
1
1
1
1
1
1
1
1
1
1
1
1
1
1
1
1
1
1
1
1
1
1
1
1
1
1
1
1
1
1
1
1
1
1
1
1
1
1
1
1
1
1
1
1
1
1
1
1
1
1
1
1
1
1
1
1
1
1
1
1
1
1
1
1
1
1
1
1
1
1
1
1
1
1
1
1
1
1
1
1
1
1
1
1
1
1
1
1
1
1
1
1
1
1
1
1
1
1
1
1
1
1
1
1
1
1
1
1
1
1
1
1
1
1
1
1
1
1
1
1
1
1
1
1
1
1
1
1
1
1
1
1
1
1
1
1
1
1
1
1
1
1
1
1
1
1
1
1
1
1
1
1
1
1
1
1
1
1
1
1
1
1
1
1
1
1
1
1
1
1
1
1
1
1
1
1
1
1
1
1
1
1
1
1
1
1
1
1
1
1
1
1
1
1
1
1
1
1
1
1
1
1
1
1
1
1
1
1
1
1
1
1
1
1
1
1
1
1
1
1
1
1
1
1
1
1
1
1
1
1
1
1
1
1
1
1
1
1
1
1
1
1
1
1
1
1
1
1
1
1
1
1
1
1
1
1
1
1
1
1
1
1
1
1
1
1
1
1
1
1
1
1
1
1
1
1
1
1
1
1
1
1
1
1
1
1
1
1
1
1
1
1
1
1
1
1
1
1
1
1
1
1
1
1
1
1
1
1
1
1
1
1
1
1
1
1
1
1
1
1
1
1
1
1
1
1
1
1
1
1
1
1
1
1
1
1
1
1
1
1
1
1
1
1
1
1
1
1
1
1
1
1
1
1
1
1
1
1
1
1
1
VECTORS velocity float 
-12.1577 -12.1576 -12.1577
-11.2641 -12.0553 -12.0553
-8.76773 -12.0843 -12.0843
-5.46806 -12.1108 -12.1108
-1.86303 -12.1225 -12.1225
1.86305 -12.1225 -12.1225
5.46811 -12.1108 -12.1108
8.76773 -12.0843 -12.0843
11.2641 -12.0553 -12.0553
12.1577 -12.1577 -12.1577
-12.0553 -11.2641 -12.0553
-11.222 -11.222 -11.9285
-8.76357 -11.2119 -11.9569
-5.46949 -11.2104 -11.9854
-1.86387 -11.2109 -11.9981
1.86382 -11.2109 -11.9981
5.4695 -11.2104 -11.9854
8.76356 -11.2119 -11.9569
11.222 -11.222 -11.9285
12.0553 -11.2641 -12.0553
-12.0843 -8.76775 -12.0843
-11.2118 -8.76357 -11.9569
-8.76125 -8.76124 -11.9826
-5.47114 -8.76145 -12.0096
-1.8647 -8.76182 -12.0218
1.86474 -8.76182 -12.0218
5.47116 -8.76145 -12.0096
8.76124 -8.76124 -11.9827
11.2119 -8.76355 -11.9569
12.0843 -8.76772 -12.0844
-12.1108 -5.46806 -12.1108
-11.2104 -5.4695 -11.9854
-8.76145 -5.47111 -12.0096
-5.47309 -5.47309 -12.0355
-1.8657 -5.47405 -12.0474
1.8657 -5.47405 -12.0474
5.4731 -5.47309 -12.0356
8.76144 -5.47113 -12.0096
11.2105 -5.46948 -11.9854
12.1108 -5.46808 -12.1108
-12.1225 -1.863 -12.1225
-11.2109 -1.86385 -11.9981
-8.76184 -1.8647 -12.0218
-5.47407 -1.8657 -12.0474
-1.86618 -1.86618 -12.059
1.86619 -1.86618 -12.059
5.47401 -1.86569 -12.0474
8.76179 -1.8647 -12.0219
11.2109 -1.86386 -11.9981
12.1224 -1.86302 -12.1225
-12.1224 1.863 -12.1224
-11.2109 1.86386 -11.9981
-8.76184 1.86473 -12.0218
-5.47406 1.86569 -12.0473
-1.86615 1.86616 -12.059
1.86618 1.86617 -12.0589
5.47407 1.86569 -12.0474
8.76185 1.86473 -12.0218
11.211 1.86387 -11.9981
12.1225 1.86302 -12.1225
-12.1108 5.46813 -12.1109
-11.2104 5.46951 -11.9855
-8.76148 5.4712 -12.0096
-5.4731 5.47306 -12.0356
-1.86571 5.47404 -12.0474
1.86566 5.47403 -12.0474
5.47306 5.47306 -12.0355
8.76145 5.47113 -12.0096
11.2104 5.46948 -11.9855
12.1108 5.46809 -12.1108
-12.0843 8.76772 -12.0843
-11.2119 8.76354 -11.9569
-8.76126 8.76125 -11.9827
-5.47114 8.76146 -12.0096
-1.86469 8.76184 -12.0218
1.86474 8.76184 -12.0218
5.47115 8.76146 -12.0097
8.76124 8.76125 -11.9826
11.2119 8.76359 -11.9569
12.0843 8.76774 -12.0843
-12.0553 11.2641 -12.0553
-11.222 11.222 -11.9285
-8.76357 11.2119 -11.9569
-5.46949 11.2104 -11.9855
-1.86384 11.2109 -11.9981
1.86383 11.2109 -11.9981
5.46952 11.2104 -11.9854
8.76355 11.2119 -11.957
11.222 11.222 -11.9285
12.0553 11.2641 -12.0553
-12.1577 12.1577 -12.1577
-11.2641 12.0553 -12.0553
-8.76774 12.0844 -12.0844
-5.46808 12.1108 -12.1108
-1.86302 12.1225 -12.1225
1.86304 12.1225 -12.1225
5.46809 12.1108 -12.1108
8.76774 12.0843 -12.0844
11.2641 12.0553 -12.0553
12.1577 12.1577 -12.1577
-12.0553 -12.0553 -11.2641
-11.222 -11.9285 -11.222
-8.76358 -11.9569 -11.2119
-5.46949 -11.9854 -11.2104
-1.86386 -11.9981 -11.2109
1.86381 -11.9981 -11.2109
5.46952 -11.9854 -11.2104
8.76355 -11.9569 -11.2119
11.222 -11.9285 -11.2221
12.0553 -12.0553 -11.2641
-11.9285 -11.222 -11.222
-11.1519 -11.1519 -11.1519
-8.74898 -11.1351 -11.1351
-5.46643 -11.1317 -11.1317
-1.86346 -11.1318 -11.1318
1.86348 -11.1318 -11.1318
5.46638 -11.1317 -11.1317
8.74903 -11.1351 -11.1351
11.1519 -11.1519 -11.1519
11.9285 -11.222 -11.222
-11.957 -8.76356 -11.2119
-11.1351 -8.74898 -11.1351
-8.74305 -8.74303 -11.1177
-5.46651 -8.74147 -11.1142
-1.86393 -8.74123 -11.1143
1.86391 -8.74122 -11.1143
5.46652 -8.74148 -11.1142
8.74305 -8.74303 -11.1178
11.1351 -8.74899 -11.1351
11.9569 -8.76358 -11.2119
-11.9854 -5.46949 -11.2104
-11.1317 -5.4664 -11.1317
-8.74149 -5.4665 -11.1142
-5.46773 -5.46773 -11.1104
-1.86465 -5.46838 -11.1104
1.86467 -5.46838 -11.1104
5.46775 -5.46773 -11.1105
8.74149 -5.4665 -11.1142
11.1317 -5.46642 -11.1317
11.9854 -5.4695 -11.2104
-11.9981 -1.86386 -11.211
-11.1318 -1.86346 -11.1318
-8.74122 -1.86391 -11.1143
-5.46838 -1.8647 -11.1104
-1.86509 -1.8651 -11.1103
1.86512 -1.86508 -11.1103
5.46844 -1.86472 -11.1104
8.74123 -1.86389 -11.1143
11.1318 -1.86345 -11.1318
11.9981 -1.86385 -11.2109
-11.9981 1.86385 -11.2109
-11.1318 1.86345 -11.1318
-8.74126 1.8639 -11.1143
-5.46839 1.8647 -11.1104
-1.86512 1.86512 -11.1102
1.86512 1.86511 -11.1102
5.46842 1.8647 -11.1104
8.74124 1.86388 -11.1142
11.1318 1.86344 -11.1318
11.9981 1.86384 -11.2109
-11.9854 5.46951 -11.2105
-11.1317 5.46643 -11.1317
-8.74149 5.46649 -11.1142
-5.46773 5.46772 -11.1105
-1.86466 5.46842 -11.1104
1.86468 5.46843 -11.1104
5.46775 5.46773 -11.1104
8.74151 5.46652 -11.1142
11.1317 5.46642 -11.1317
11.9855 5.46952 -11.2105
-11.9569 8.76356 -11.2119
-11.1351 8.74902 -11.1351
-8.74304 8.74308 -11.1178
-5.4665 8.74152 -11.1142
-1.86393 8.74124 -11.1143
1.86388 8.74125 -11.1143
5.4665 8.7415 -11.1142
8.74308 8.74308 -11.1177
11.1351 8.74901 -11.1351
11.9569 8.76355 -11.2119
-11.9285 11.222 -11.2221
-11.1519 11.1519 -11.1519
-8.74899 11.1351 -11.1351
-5.46644 11.1318 -11.1317
-1.86346 11.1318 -11.1318
1.86347 11.1318 -11.1318
5.46638 11.1317 -11.1317
8.74903 11.1351 -11.1351
11.1519 11.1519 -11.1519
11.9285 11.222 -11.2221
-12.0553 12.0553 -11.2641
-11.2221 11.9285 -11.222
-8.76359 11.9569 -11.2119
-5.4695 11.9854 -11.2104
-1.86387 11.9981 -11.2109
1.8638 11.9981 -11.2109
5.46952 11.9855 -11.2104
8.76355 11.957 -11.2119
11.222 11.9285 -11.2221
12.0553 12.0553 -11.2641
-12.0844 -12.0844 -8.76776
-11.2119 -11.957 -8.76357
-8.76127 -11.9826 -8.76124
-5.47115 -12.0096 -8.76147
-1.86471 -12.0218 -8.76183
1.86475 -12.0218 -8.76183
5.47117 -12.0096 -8.76146
8.76126 -11.9827 -8.76123
11.2119 -11.957 -8.76358
12.0844 -12.0844 -8.76775
-11.957 -11.2119 -8.76357
-11.1351 -11.1351 -8.74898
-8.74305 -11.1177 -8.74304
-5.46652 -11.1142 -8.7415
-1.86393 -11.1143 -8.74122
1.86391 -11.1143 -8.74122
5.46652 -11.1142 -8.74149
8.74309 -11.1178 -8.74304
11.1351 -11.1351 -8.749
11.957 -11.2119 -8.76359
-11.9826 -8.76126 -8.76124
-11.1177 -8.74305 -8.74304
-8.7368 -8.73679 -8.73682
-5.46645 -8.73517 -8.73513
-1.86432 -8.73488 -8.73489
1.8643 -8.73489 -8.73488
5.46644 -8.73515 -8.73511
8.7368 -8.73683 -8.73685
11.1177 -8.74304 -8.74305
11.9827 -8.76127 -8.76126
-12.0096 -5.47115 -8.76145
-11.1142 -5.46652 -8.74147
-8.73518 -5.46645 -8.73514
-5.46761 -5.46759 -8.7335
-1.86509 -5.46826 -8.73322
1.86506 -5.46827 -8.73321
5.46761 -5.46756 -8.73355
8.7351 -5.46649 -8.73511
11.1142 -5.46652 -8.74148
12.0096 -5.47115 -8.76145
-12.0218 -1.86472 -8.76185
-11.1143 -1.86391 -8.74123
-8.73489 -1.86437 -8.73489
-5.46828 -1.86509 -8.73326
-1.8655 -1.86548 -8.73291
1.86547 -1.8655 -8.73295
5.46822 -1.86508 -8.73321
8.73484 -1.86438 -8.73489
11.1143 -1.86392 -8.74124
12.0218 -1.86471 -8.76185
-12.0219 1.86472 -8.76183
-11.1143 1.86387 -8.74121
-8.73488 1.86431 -8.7349
-5.46825 1.86505 -8.73318
-1.86548 1.86549 -8.73287
1.86549 1.86547 -8.73284
5.46828 1.86511 -8.73323
8.73488 1.86427 -8.73488
11.1143 1.8639 -8.74121
12.0219 1.8647 -8.76184
-12.0096 5.47112 -8.76148
-11.1142 5.46651 -8.7415
-8.73514 5.46642 -8.73514
-5.46759 5.46758 -8.73352
-1.86511 5.46826 -8.73324
1.86507 5.46824 -8.73325
5.46758 5.46761 -8.73348
8.73504 5.46642 -8.73516
11.1141 5.4665 -8.7415
12.0095 5.47112 -8.76149
-11.9826 8.76125 -8.76127
-11.1177 8.74309 -8.74304
-8.73678 8.73678 -8.73682
-5.46641 8.73511 -8.73516
-1.86431 8.73485 -8.73488
1.86431 8.73485 -8.73486
5.46645 8.73513 -8.73518
8.73678 8.73677 -8.73679
11.1177 8.74307 -8.74305
11.9827 8.76125 -8.76126
-11.9569 11.2118 -8.7636
-11.1351 11.1351 -8.74901
-8.74302 11.1177 -8.74304
-5.46648 11.1141 -8.7415
-1.86391 11.1143 -8.74124
1.86387 11.1143 -8.74124
5.46652 11.1141 -8.74149
8.74308 11.1177 -8.74307
11.1351 11.1351 -8.749
11.957 11.2118 -8.7636
-12.0843 12.0843 -8.76777
-11.2118 11.957 -8.76359
-8.76124 11.9826 -8.76127
-5.47112 12.0096 -8.76148
-1.8647 12.0218 -8.76184
1.86474 12.0218 -8.76184
5.47115 12.0096 -8.76147
8.76126 11.9826 -8.76128
11.2118 11.9569 -8.7636
12.0843 12.0843 -8.76777
-12.1108 -12.1108 -5.46811
-11.2104 -11.9854 -5.4695
-8.76142 -12.0096 -5.47114
-5.47307 -12.0355 -5.47311
-1.86567 -12.0474 -5.47406
1.86568 -12.0474 -5.47406
5.47307 -12.0355 -5.47312
8.76143 -12.0096 -5.47113
11.2104 -11.9854 -5.46951
12.1108 -12.1108 -5.46811
-11.9854 -11.2104 -5.46951
-11.1317 -11.1317 -5.46643
-8.74145 -11.1142 -5.46656
-5.46772 -11.1104 -5.46777
-1.86466 -11.1104 -5.46838
1.86466 -11.1104 -5.46838
5.46768 -11.1104 -5.46776
8.74143 -11.1142 -5.4665
11.1316 -11.1317 -5.46643
11.9854 -11.2104 -5.46949
-12.0096 -8.76142 -5.47113
-11.1142 -8.74145 -5.4665
-8.73515 -8.73514 -5.46648
-5.46759 -8.73346 -5.46755
-1.86509 -8.73322 -5.46825
1.86508 -8.73321 -5.46826
5.4676 -8.73348 -5.46754
8.73514 -8.73511 -5.46649
11.1142 -8.74147 -5.46652
12.0096 -8.76143 -5.47116
-12.0355 -5.47307 -5.47312
-11.1104 -5.46772 -5.46774
-8.73346 -5.46757 -5.46759
-5.46871 -5.46871 -5.46873
-1.86579 -5.46942 -5.46939
1.86587 -5.46941 -5.46939
5.46879 -5.46873 -5.46878
8.73353 -5.46754 -5.46753
11.1105 -5.46774 -5.46776
12.0356 -5.47308 -5.4731
-12.0474 -1.86568 -5.47408
-11.1104 -1.86467 -5.46841
-8.73322 -1.86509 -5.46827
-5.46942 -1.86582 -5.46943
-1.86626 -1.86627 -5.47005
1.86624 -1.86625 -5.47008
5.4694 -1.86581 -5.46937
8.73324 -1.86507 -5.4683
11.1104 -1.86467 -5.46839
12.0474 -1.86565 -5.47408
-12.0474 1.86571 -5.47404
-11.1104 1.86464 -5.46837
-8.73323 1.86508 -5.46826
-5.46942 1.86585 -5.46937
-1.86628 1.86625 -5.47001
1.86623 1.86623 -5.46999
5.46939 1.86584 -5.46943
8.73322 1.86508 -5.46825
11.1104 1.86464 -5.46838
12.0474 1.86567 -5.47406
-12.0355 5.47307 -5.4731
-11.1104 5.46768 -5.46779
-8.73347 5.46761 -5.46757
-5.46869 5.46878 -5.46875
-1.86583 5.46937 -5.46945
1.86591 5.4694 -5.46945
5.46881 5.46875 -5.46871
8.73354 5.46762 -5.46758
11.1105 5.46774 -5.46778
12.0356 5.47308 -5.47311
-12.0096 8.76143 -5.47114
-11.1142 8.74144 -5.46652
-8.73516 8.73512 -5.46652
-5.4676 8.73353 -5.46762
-1.86511 8.73325 -5.46825
1.86509 8.73326 -5.46823
5.4676 8.73351 -5.46764
8.73508 8.73513 -5.46646
11.1142 8.7414 -5.46654
12.0096 8.76144 -5.47115
-11.9854 11.2104 -5.46951
-11.1317 11.1317 -5.46644
-8.74147 11.1142 -5.46651
-5.46772 11.1105 -5.46778
-1.86466 11.1104 -5.46838
1.86465 11.1104 -5.46839
5.46769 11.1105 -5.46775
8.74144 11.1142 -5.46657
11.1317 11.1317 -5.46643
11.9854 11.2104 -5.46951
-12.1108 12.1108 -5.46812
-11.2104 11.9854 -5.46951
-8.76143 12.0096 -5.47116
-5.47308 12.0356 -5.4731
-1.86567 12.0474 -5.47408
1.86568 12.0474 -5.47408
5.47307 12.0356 -5.47311
8.76143 12.0096 -5.47114
11.2104 11.9854 -5.46951
12.1108 12.1108 -5.46811
-12.1225 -12.1225 -1.86307
-11.2109 -11.9981 -1.86386
-8.76183 -12.0218 -1.86472
-5.47406 -12.0474 -1.86572
-1.86617 -12.059 -1.86619
1.8662 -12.059 -1.86617
5.47401 -12.0474 -1.86575
8.76182 -12.0218 -1.86473
11.2109 -11.9981 -1.86389
12.1225 -12.1225 -1.86306
-11.9981 -11.2109 -1.8639
-11.1318 -11.1318 -1.86347
-8.74122 -11.1143 -1.86386
-5.46838 -11.1104 -1.86469
-1.86509 -11.1103 -1.8651
1.86513 -11.1103 -1.8651
5.46842 -11.1104 -1.86472
8.74125 -11.1143 -1.8639
11.1318 -11.1317 -1.86346
11.9981 -11.2109 -1.86388
-12.0218 -8.76184 -1.86472
-11.1143 -8.74123 -1.86391
-8.73485 -8.73487 -1.86438
-5.46824 -8.73322 -1.86504
-1.86548 -8.7329 -1.86551
1.86547 -8.73293 -1.86551
5.46824 -8.7332 -1.86504
8.7348 -8.73488 -1.8644
11.1142 -8.74122 -1.8639
12.0218 -8.76184 -1.8647
-12.0474 -5.47408 -1.86571
-11.1104 -5.46839 -1.86466
-8.73322 -5.46825 -1.86508
-5.46942 -5.46939 -1.86586
-1.86627 -5.47004 -1.86626
1.86624 -5.47006 -1.86625
5.46939 -5.4694 -1.86589
8.73325 -5.46827 -1.86504
11.1104 -5.46837 -1.86467
12.0474 -5.47406 -1.86571
-12.059 -1.86614 -1.86616
-11.1103 -1.86508 -1.86512
-8.73291 -1.8655 -1.8655
-5.47003 -1.86626 -1.86629
-1.86666 -1.86666 -1.8667
1.86667 -1.86669 -1.86671
5.47001 -1.86625 -1.86622
8.73286 -1.8655 -1.86553
11.1102 -1.86509 -1.86511
12.059 -1.86617 -1.86617
-12.059 1.86614 -1.86616
-11.1102 1.86512 -1.86509
-8.7329 1.86548 -1.86549
-5.47003 1.86626 -1.86626
-1.86665 1.86666 -1.8666
1.86666 1.86663 -1.8666
5.47002 1.86626 -1.86627
8.73285 1.86547 -1.8655
11.1102 1.86513 -1.8651
12.059 1.86617 -1.86617
-12.0474 5.47405 -1.86572
-11.1104 5.46841 -1.86472
-8.73321 5.4682 -1.86508
-5.46943 5.4694 -1.86586
-1.86626 5.46997 -1.86631
1.86624 5.46997 -1.8663
5.46937 5.46941 -1.86584
8.73326 5.4682 -1.8651
11.1104 5.4684 -1.86475
12.0474 5.47402 -1.86574
-12.0218 8.76176 -1.86477
-11.1143 8.74121 -1.86392
-8.73485 8.73481 -1.8644
-5.46823 8.73325 -1.86509
-1.86547 8.73288 -1.86549
1.86548 8.73287 -1.86548
5.46825 8.73326 -1.86516
8.73481 8.73479 -1.86437
11.1143 8.74123 -1.86391
12.0218 8.76177 -1.86478
-11.9981 11.2109 -1.86388
-11.1317 11.1318 -1.86351
-8.74122 11.1143 -1.86393
-5.46838 11.1104 -1.86473
-1.86509 11.1102 -1.86514
1.86513 11.1102 -1.86513
5.4684 11.1105 -1.86472
8.74123 11.1142 -1.86393
11.1318 11.1318 -1.86351
11.9981 11.2109 -1.86388
-12.1224 12.1224 -1.86308
-11.2109 11.9981 -1.86389
-8.76182 12.0218 -1.86481
-5.47405 12.0474 -1.86573
-1.86618 12.059 -1.86619
1.86619 12.0589 -1.86619
5.47404 12.0474 -1.86574
8.76181 12.0218 -1.86477
11.2109 11.9981 -1.86388
12.1225 12.1224 -1.86309
-12.1225 -12.1225 1.863
-11.2109 -11.9981 1.8638
-8.76182 -12.0218 1.86471
-5.47405 -12.0474 1.86568
-1.86617 -12.059 1.86617
1.86618 -12.0589 1.86617
5.47401 -12.0474 1.86566
8.7618 -12.0218 1.86472
11.2109 -11.9981 1.86382
12.1224 -12.1225 1.86301
-11.9981 -11.2109 1.86385
-11.1318 -11.1318 1.86344
-8.74124 -11.1143 1.8639
-5.46838 -11.1104 1.86461
-1.8651 -11.1103 1.86508
1.86513 -11.1102 1.86508
5.46842 -11.1104 1.86464
8.74124 -11.1142 1.86394
11.1318 -11.1318 1.86346
11.9981 -11.2109 1.86381
-12.0218 -8.76183 1.86471
-11.1143 -8.74123 1.86393
-8.73486 -8.73487 1.86425
-5.46826 -8.73321 1.86511
-1.86548 -8.73291 1.86547
1.86551 -8.73283 1.86547
5.46822 -8.73322 1.86513
8.73483 -8.73484 1.86425
11.1143 -8.74124 1.86391
12.0218 -8.76184 1.86468
-12.0474 -5.47406 1.86562
-11.1104 -5.46838 1.86461
-8.7332 -5.46823 1.86509
-5.46941 -5.4694 1.86574
-1.86627 -5.47002 1.86628
1.86626 -5.46998 1.86627
5.46936 -5.46944 1.86577
8.73324 -5.46821 1.8651
11.1104 -5.46839 1.86461
12.0474 -5.47405 1.86566
-12.059 -1.86614 1.86615
-11.1103 -1.8651 1.86506
-8.7329 -1.86548 1.86545
-5.47002 -1.86628 1.86624
-1.86665 -1.86667 1.86665
1.86667 -1.86657 1.86659
5.47002 -1.86629 1.86626
8.73289 -1.86549 1.86542
11.1102 -1.86511 1.86505
12.059 -1.86615 1.86615
-12.059 1.86618 1.86618
-11.1103 1.86512 1.86509
-8.73289 1.86551 1.86545
-5.47 1.86623 1.86628
-1.86666 1.86667 1.8667
1.86668 1.86672 1.86673
5.47004 1.8662 1.86623
8.73293 1.86555 1.8655
11.1102 1.86511 1.86509
12.059 1.86619 1.86618
-12.0474 5.47406 1.86562
-11.1104 5.46842 1.86461
-8.73321 5.46825 1.86511
-5.46942 5.46937 1.86581
-1.86627 5.47001 1.86622
1.86625 5.47008 1.86622
5.46937 5.46933 1.86588
8.73323 5.46827 1.86506
11.1104 5.46841 1.8646
12.0474 5.47406 1.86566
-12.0218 8.76178 1.86464
-11.1142 8.74121 1.86389
-8.73486 8.73484 1.86425
-5.46826 8.73324 1.86506
-1.86548 8.73285 1.86547
1.8655 8.73298 1.86548
5.46821 8.73316 1.86501
8.7348 8.7349 1.8643
11.1143 8.74121 1.86392
12.0218 8.76178 1.86466
-11.9981 11.211 1.86379
-11.1318 11.1318 1.86341
-8.74124 11.1142 1.8639
-5.46838 11.1104 1.86459
-1.86511 11.1102 1.86507
1.86511 11.1103 1.86508
5.4684 11.1103 1.86463
8.74121 11.1143 1.86384
11.1318 11.1318 1.86338
11.9981 11.2109 1.86378
-12.1225 12.1225 1.86298
-11.2109 11.9981 1.86381
-8.76183 12.0218 1.86467
-5.47404 12.0474 1.86567
-1.86619 12.059 1.86617
1.86618 12.0591 1.86617
5.47403 12.0473 1.86565
8.7618 12.0219 1.86464
11.2109 11.9981 1.86378
12.1224 12.1224 1.863
-12.1108 -12.1108 5.46802
-11.2104 -11.9854 5.46945
-8.76143 -12.0096 5.47108
-5.47307 -12.0355 5.47301
-1.86567 -12.0474 5.47404
1.86569 -12.0474 5.47403
5.4731 -12.0355 5.47301
8.76143 -12.0096 5.47111
11.2104 -11.9854 5.46944
12.1108 -12.1108 5.46803
-11.9854 -11.2104 5.46945
-11.1317 -11.1317 5.46633
-8.74146 -11.1142 5.46652
-5.46771 -11.1104 5.46766
-1.86467 -11.1104 5.46835
1.86464 -11.1104 5.46834
5.46769 -11.1104 5.46765
8.74144 -11.1142 5.46653
11.1316 -11.1317 5.46633
11.9854 -11.2104 5.46946
-12.0096 -8.76145 5.47111
-11.1142 -8.74148 5.46651
-8.73514 -8.73514 5.46638
-5.46757 -8.73348 5.46765
-1.8651 -8.7332 5.4682
1.86507 -8.73324 5.46819
5.4676 -8.73347 5.46763
8.73514 -8.73515 5.46634
11.1141 -8.74147 5.46653
12.0096 -8.76144 5.47111
-12.0355 -5.47309 5.47301
-11.1104 -5.46773 5.46772
-8.73348 -5.46758 5.46763
-5.46869 -5.4687 5.46861
-1.86585 -5.4694 5.46943
1.86588 -5.46942 5.46943
5.46877 -5.46869 5.46868
8.73353 -5.46758 5.46765
11.1105 -5.46772 5.46767
12.0356 -5.47308 5.47302
-12.0474 -1.86568 5.47402
-11.1104 -1.86466 5.4683
-8.7332 -1.86509 5.46818
-5.46941 -1.86581 5.46943
-1.86626 -1.86626 5.46999
1.86624 -1.8663 5.46996
5.4694 -1.86581 5.46943
8.73323 -1.86509 5.46816
11.1104 -1.86467 5.46833
12.0474 -1.8657 5.47402
-12.0474 1.86568 5.47402
-11.1104 1.86463 5.46834
-8.73321 1.86507 5.46818
-5.46942 1.86585 5.46938
-1.86627 1.86624 5.47005
1.86623 1.86621 5.47006
5.46935 1.86587 5.46935
8.73321 1.86507 5.46816
11.1104 1.86464 5.46839
12.0473 1.86566 5.47402
-12.0355 5.47306 5.47306
-11.1104 5.46769 5.46765
-8.73346 5.46757 5.46763
-5.46868 5.46876 5.46872
-1.86582 5.46941 5.46934
1.8659 5.46935 5.4694
5.46876 5.46881 5.46874
8.73355 5.46757 5.46762
11.1105 5.46772 5.46763
12.0356 5.47312 5.47303
-12.0096 8.76142 5.4711
-11.1142 8.74139 5.4665
-8.73514 8.7351 5.46635
-5.46758 8.73351 5.4676
-1.8651 8.73324 5.46817
1.86506 8.7332 5.4682
5.46761 8.73354 5.46755
8.73513 8.73507 5.46638
11.1142 8.74142 5.46651
12.0096 8.76148 5.47111
-11.9854 11.2105 5.46949
-11.1317 11.1317 5.46631
-8.74145 11.1142 5.46651
-5.46772 11.1105 5.46765
-1.86466 11.1104 5.46834
1.86467 11.1104 5.46833
5.46773 11.1105 5.46767
8.74142 11.1141 5.46651
11.1317 11.1317 5.46636
11.9854 11.2104 5.46949
-12.1108 12.1108 5.46803
-11.2104 11.9854 5.46948
-8.76143 12.0096 5.47108
-5.47308 12.0355 5.47302
-1.86567 12.0474 5.474
1.8657 12.0473 5.474
5.47311 12.0356 5.47302
8.76148 12.0096 5.47109
11.2105 11.9854 5.46948
12.1109 12.1108 5.46802
-12.0843 -12.0843 8.76774
-11.2118 -11.9569 8.76352
-8.76124 -11.9826 8.76115
-5.47113 -12.0096 8.76138