# vtk DataFile Version 3.0 
Lennard-Jones particle simulation 
ASCII 
DATASET UNSTRUCTURED_GRID 
POINTS 1000 float 
-4.49587 -4.49587 -4.49587
-2.84522 -4.47258 -4.47258
-0.953636 -4.47416 -4.47416
1.15812 -4.47743 -4.47743
3.37454 -4.4792 -4.4792
5.62547 -4.4792 -4.4792
7.8419 -4.47743 -4.47743
9.95364 -4.47416 -4.47416
11.8452 -4.47258 -4.47258
13.4959 -4.49587 -4.49587
-4.47258 -2.84522 -4.47258
-2.83445 -2.83444 -4.44092
-0.950886 -2.83515 -4.44106
1.15826 -2.83642 -4.44407
3.37443 -2.83715 -4.44583
5.62555 -2.83715 -4.44583
7.84173 -2.83642 -4.44407
9.95088 -2.83515 -4.44106
11.8344 -2.83444 -4.44092
13.4726 -2.84522 -4.47258
-4.47416 -0.953639 -4.47416
-2.83515 -0.950885 -4.44106
-0.952321 -0.95232 -4.44075
1.15695 -0.953646 -4.44355
3.37395 -0.95426 -4.44528
5.62606 -0.954259 -4.44528
7.84305 -0.953645 -4.44355
9.95232 -0.95232 -4.44076
11.8352 -0.950879 -4.44107
13.4742 -0.953632 -4.47416
-4.47743 1.15812 -4.47743
-2.83642 1.15826 -4.44407
-0.953647 1.15696 -4.44357
1.15583 1.15583 -4.44623
3.3735 1.1553 -4.44789
5.6265 1.1553 -4.44789
7.84417 1.15583 -4.44624
9.95364 1.15695 -4.44355
11.8364 1.15827 -4.44407
13.4774 1.15812 -4.47743
-4.4792 3.37455 -4.4792
-2.83715 3.37444 -4.44583
-0.954266 3.37395 -4.44528
1.1553 3.3735 -4.44791
3.37328 3.37329 -4.44951
5.62672 3.37329 -4.44951
7.84469 3.3735 -4.44789
9.95425 3.37395 -4.44529
11.8371 3.37444 -4.44583
13.4792 3.37454 -4.4792
-4.47919 5.62545 -4.47919
-2.83714 5.62557 -4.44582
-0.954263 5.62606 -4.44528
1.1553 5.6265 -4.44787
3.37329 5.62671 -4.4495
5.62672 5.62671 -4.4495
7.8447 5.6265 -4.44789
9.95427 5.62606 -4.44527
11.8372 5.62557 -4.44583
13.4792 5.62546 -4.4792
-4.47744 7.84189 -4.47744
-2.83643 7.84174 -4.44408
-0.953653 7.84307 -4.44356
1.15583 7.84416 -4.44624
3.3735 7.8447 -4.4479
5.62649 7.84469 -4.4479
7.84416 7.84416 -4.44623
9.95364 7.84305 -4.44357
11.8364 7.84173 -4.44408
13.4774 7.84189 -4.47744
-4.47416 9.95364 -4.47416
-2.83515 9.95088 -4.44106
-0.952322 9.95233 -4.44076
1.15695 9.95364 -4.44357
3.37395 9.95427 -4.44528
5.62606 9.95427 -4.44528
7.84305 9.95365 -4.44358
9.95232 9.95232 -4.44075
11.8352 9.95089 -4.44106
13.4742 9.95364 -4.47416
-4.47258 11.8452 -4.47259
-2.83445 11.8344 -4.44093
-0.950887 11.8352 -4.44106
1.15826 11.8364 -4.44408
3.37444 11.8372 -4.44584
5.62555 11.8372 -4.44583
7.84174 11.8364 -4.44407
9.95088 11.8352 -4.44107
11.8344 11.8344 -4.44093
13.4726 11.8452 -4.47259
-4.49587 13.4959 -4.49587
-2.84523 13.4726 -4.47258
-0.953637 13.4742 -4.47417
1.15812 13.4774 -4.47744
3.37454 13.4792 -4.4792
5.62547 13.4792 -4.4792
7.84189 13.4774 -4.47744
9.95364 13.4742 -4.47416
11.8452 13.4726 -4.47259
13.4959 13.4959 -4.49587
-4.47258 -4.47258 -2.84523
-2.83445 -4.44092 -2.83444
-0.950887 -4.44106 -2.83516
1.15827 -4.44407 -2.83643
3.37444 -4.44583 -2.83715
5.62555 -4.44583 -2.83715
7.84174 -4.44407 -2.83643
9.95088 -4.44106 -2.83515
11.8344 -4.44093 -2.83445
13.4726 -4.47258 -2.84523
-4.44092 -2.83445 -2.83445
-2.81705 -2.81705 -2.81705
-0.944619 -2.81631 -2.8163
1.16007 -2.81704 -2.81704
3.3748 -2.8176 -2.8176
5.6252 -2.8176 -2.8176
7.83993 -2.81704 -2.81704
9.94463 -2.81631 -2.8163
11.8171 -2.81705 -2.81705
13.4409 -2.83445 -2.83445
-4.44107 -0.950883 -2.83515
-2.81631 -0.944619 -2.8163
-0.945233 -0.945227 -2.81519
1.15915 -0.946186 -2.81574
3.37442 -0.946672 -2.81627
5.62558 -0.946669 -2.81627
7.84086 -0.946189 -2.81574
9.94524 -0.945227 -2.81519
11.8163 -0.944622 -2.81631
13.4411 -0.950887 -2.83516
-4.44407 1.15826 -2.83642
-2.81703 1.16007 -2.81704
-0.946189 1.15915 -2.81575
1.15819 1.15819 -2.81621
3.37403 1.15774 -2.8167
5.62597 1.15774 -2.8167
7.84182 1.15819 -2.81623
9.94619 1.15915 -2.81573
11.817 1.16007 -2.81704
13.4441 1.15826 -2.83642
-4.44583 3.37444 -2.83715
-2.8176 3.3748 -2.81761
-0.94667 3.37442 -2.81627
1.15773 3.37402 -2.81672
3.37383 3.37383 -2.81716
5.62618 3.37383 -2.81716
7.84228 3.37401 -2.8167
9.94667 3.37443 -2.81628
11.8176 3.37481 -2.8176
13.4458 3.37444 -2.83715
-4.44584 5.62556 -2.83714
-2.81761 5.6252 -2.8176
-0.94668 5.62558 -2.81627
1.15773 5.62598 -2.81669
3.37382 5.62618 -2.81715
5.62618 5.62618 -2.81714
7.84227 5.62598 -2.8167
9.94667 5.62557 -2.81626
11.8176 5.62519 -2.8176
13.4458 5.62556 -2.83715
-4.44407 7.84174 -2.83643
-2.81703 7.83994 -2.81705
-0.94619 7.84085 -2.81574
1.15819 7.84181 -2.81622
3.37403 7.84228 -2.81671
5.62597 7.84228 -2.81671
7.84182 7.84181 -2.81621
9.9462 7.84085 -2.81575
11.8171 7.83993 -2.81704
13.4441 7.84174 -2.83643
-4.44107 9.95088 -2.83516
-2.81631 9.94463 -2.81631
-0.94523 9.94524 -2.81519
1.15915 9.9462 -2.81575
3.37442 9.94668 -2.81627
5.62557 9.94668 -2.81627
7.84085 9.9462 -2.81576
9.94524 9.94524 -2.81519
11.8163 9.94463 -2.81631
13.4411 9.95088 -2.83516
-4.44093 11.8344 -2.83445
-2.81705 11.8171 -2.81706
-0.944622 11.8163 -2.81631
1.16006 11.8171 -2.81705
3.3748 11.8176 -2.81761
5.6252 11.8176 -2.81761
7.83993 11.8171 -2.81704
9.94463 11.8163 -2.81632
11.8171 11.8171 -2.81706
13.4409 11.8344 -2.83445
-4.47259 13.4726 -2.84523
-2.83445 13.4409 -2.83445
-0.950889 13.4411 -2.83516
1.15826 13.4441 -2.83643
3.37443 13.4458 -2.83715
5.62555 13.4458 -2.83715
7.84174 13.4441 -2.83643
9.95088 13.4411 -2.83516
11.8344 13.4409 -2.83445
13.4726 13.4726 -2.84523
-4.47417 -4.47417 -0.953643
-2.83516 -4.44107 -0.950886
-0.952327 -4.44075 -0.952319
1.15695 -4.44357 -0.953651
3.37395 -4.44528 -0.954262
5.62606 -4.44528 -0.954262
7.84306 -4.44356 -0.953651
9.95233 -4.44076 -0.952318
11.8352 -4.44107 -0.95089
13.4742 -4.47417 -0.953642
-4.44107 -2.83516 -0.950885
-2.81631 -2.81632 -0.94462
-0.945233 -2.81518 -0.945228
1.15915 -2.81575 -0.946195
3.37442 -2.81627 -0.946669
5.62558 -2.81627 -0.946669
7.84086 -2.81574 -0.946192
9.94524 -2.81519 -0.945227
11.8163 -2.81631 -0.944624
13.4411 -2.83516 -0.95089
-4.44075 -0.952325 -0.95232
-2.81518 -0.945233 -0.945228
-0.945628 -0.945625 -0.945633
1.15831 -0.946496 -0.946482
3.37406 -0.946946 -0.946948
5.62593 -0.946948 -0.946947
7.84168 -0.94649 -0.946479
9.94562 -0.945635 -0.94564
11.8152 -0.94523 -0.945232
13.4408 -0.952325 -0.952323
-4.44357 1.15695 -0.953648
-2.81576 1.15915 -0.946186
-0.946499 1.15832 -0.946488
1.1574 1.1574 -0.947311
3.37367 1.15696 -0.947754
5.62632 1.15695 -0.947751
7.8426 1.15741 -0.94733
9.94648 1.1583 -0.946477
11.8157 1.15915 -0.94619
13.4436 1.15695 -0.953645
-4.44529 3.37394 -0.954269
-2.81628 3.37442 -0.946675
-0.94695 3.37405 -0.946949
1.15695 3.37368 -0.947766
3.37348 3.37348 -0.948178
5.62651 3.37348 -0.948189
7.84303 3.37368 -0.94775
9.94693 3.37405 -0.946952
11.8163 3.37442 -0.946676
13.4453 3.37395 -0.954268
-4.44529 5.62606 -0.954263
-2.81628 5.62557 -0.946667
-0.946947 5.62593 -0.946951
1.15696 5.62631 -0.94774
3.37349 5.62652 -0.948164
5.62652 5.62651 -0.948157
7.84305 5.62633 -0.947758
9.94695 5.62592 -0.946946
11.8163 5.62558 -0.946666
13.4453 5.62605 -0.954264
-4.44355 7.84304 -0.953656
-2.81574 7.84085 -0.946196
-0.946487 7.84168 -0.946487
1.1574 7.84259 -0.94732
3.37367 7.84304 -0.947762
5.62632 7.84304 -0.947765
7.84259 7.8426 -0.947307
9.94646 7.84167 -0.946494
11.8157 7.84085 -0.946197
13.4435 7.84304 -0.953658
-4.44074 9.95232 -0.952329
-2.81518 9.94524 -0.945229
-0.94562 9.94562 -0.945636
1.15833 9.94648 -0.946495
3.37407 9.94694 -0.946947
5.62594 9.94694 -0.94694
7.84168 9.94649 -0.946503
9.94562 9.94562 -0.945626
11.8152 9.94524 -0.945236
13.4408 9.95232 -0.952326
-4.44106 11.8351 -0.950893
-2.81631 11.8163 -0.944628
-0.945224 11.8152 -0.94523
1.15915 11.8157 -0.946198
3.37442 11.8163 -0.946675
5.62557 11.8163 -0.946676
7.84086 11.8157 -0.946192
9.94524 11.8152 -0.945239
11.8163 11.8163 -0.944626
13.4411 11.8351 -0.950894
-4.47415 13.4742 -0.953645
-2.83515 13.4411 -0.950892
-0.952317 13.4408 -0.952329
1.15696 13.4435 -0.953653
3.37395 13.4453 -0.954267
5.62606 13.4453 -0.954266
7.84305 13.4436 -0.953653
9.95232 13.4408 -0.952329
11.8352 13.4411 -0.950893
13.4742 13.4742 -0.953648
-4.47742 -4.47742 1.15811
-2.83641 -4.44406 1.15826
-0.953636 -4.44356 1.15695
1.15583 -4.44622 1.15582
3.37351 -4.44789 1.1553
5.6265 -4.44789 1.1553
7.84416 -4.44622 1.15582
9.95364 -4.44355 1.15696
11.8364 -4.44406 1.15826
13.4774 -4.47742 1.15811
-4.44406 -2.83641 1.15826
-2.81702 -2.81702 1.16007
-0.946179 -2.81574 1.15913
1.15819 -2.81621 1.15818
3.37403 -2.8167 1.15774
5.62597 -2.8167 1.15773
7.8418 -2.81621 1.15818
9.94617 -2.81573 1.15915
11.817 -2.81703 1.16006
13.444 -2.83641 1.15827
-4.44356 -0.953635 1.15696
-2.81574 -0.946179 1.15915
-0.946491 -0.946486 1.15831
1.1574 -0.947303 1.15742
3.37367 -0.947755 1.15695
5.62632 -0.947751 1.15695
7.8426 -0.947309 1.15742
9.94649 -0.946478 1.1583
11.8157 -0.946184 1.15914
13.4436 -0.953638 1.15695
-4.44622 1.15584 1.15582
-2.8162 1.15819 1.15819
-0.947302 1.15741 1.1574
1.15651 1.15652 1.15651
3.37331 1.15605 1.15606
5.62671 1.15606 1.15607
7.84351 1.15651 1.15649
9.94733 1.15742 1.15742
11.8162 1.15819 1.15818
13.4462 1.15583 1.15583
-4.44789 3.37351 1.1553
-2.8167 3.37403 1.15773
-0.947755 3.37368 1.15695
1.15606 3.3733 1.15605
3.3731 3.37309 1.15562
5.6269 3.3731 1.15561
7.84394 3.3733 1.15607
9.94776 3.37368 1.15694
11.8167 3.37403 1.15773
13.4479 3.37351 1.1553
-4.44789 5.6265 1.15531
-2.8167 5.62596 1.15774
-0.947756 5.62632 1.15695
1.15606 5.62671 1.15607
3.37309 5.6269 1.15564
5.62689 5.62689 1.15564
7.84393 5.6267 1.15605
9.94775 5.62632 1.15696
11.8167 5.62596 1.15774
13.4479 5.62649 1.1553
-4.44623 7.84417 1.15582
-2.81621 7.8418 1.15817
-0.947305 7.8426 1.15741
1.15652 7.84351 1.1565
3.3733 7.84393 1.15604
5.62673 7.84394 1.15605
7.84352 7.8435 1.15651
9.94733 7.8426 1.1574
11.8162 7.84181 1.15817
13.4462 7.84417 1.15582
-4.44356 9.95364 1.15695
-2.81575 9.94617 1.15914
-0.946494 9.94648 1.15829
1.1574 9.94733 1.1574
3.37367 9.94776 1.15695
5.62632 9.94776 1.15696
7.8426 9.94731 1.15739
9.94647 9.94649 1.15831
11.8157 9.94616 1.15914
13.4436 9.95364 1.15695
-4.44406 11.8364 1.15826
-2.81703 11.817 1.16006
-0.946182 11.8157 1.15915
1.15819 11.8162 1.15817
3.37403 11.8167 1.15773
5.62597 11.8167 1.15773
7.8418 11.8162 1.15818
[...]
POINT_DATA 1000
SCALARS mass float 
LOOKUP_TABLE default 
1
1
1
1
1
1
1
1
1
1
1
1
1
1
1
1
1
1
1
1
1
1
1
1
1
1
1
1
1
1
1
1
1
1
1
1
1
1
1
1
1
1
1
1
1
1
1
1
1
1
1
1
1
1
1
1
1
1
1
1
1
1
1
1
1
1
1
1
1
1
1
1
1
1
1
1
1
1
1
1
1
1
1
1
1
1
1
1
1
1
1
1
1
1
1
1
1
1
1
1
1
1
1
1
1
1
1
1
1
1
1
1
1
1
1
1
1
1
1
1
1
1
1
1
1
1
1
1
1
1
1
1
1
1
1
1
1
1
1
1
1
1
1
1
1
1
1
1
1
1
1
1
1
1
1
1
1
1
1
1
1
1
1
1
1
1
1
1
1
1
1
1
1
1
1
1
1
1
1
1
1
1
1
1
1
1
1
1
1
1
1
1
1
1
1
1
1
1
1
1
1
1
1
1
1
1
1
1
1
1
1
1
1
1
1
1
1
1
1
1
1
1
1
1
1
1
1
1
1
1
1
1
1
1
1
1
1
1
1
1
1
1
1
1
1
1
1
1
1
1
1
1
1
1
1
1
1
1
1
1
1
1
1
1
1
1
1
1
1
1
1
1
1
1
1
1
1
1
1
1
1
1
1
1
1
1
1
1
1
1
1
1
1
1
1
1
1
1
1
1
1
1
1
1
1
1
1
1
1
1
1
1
1
1
1
1
1
1
1
1
1
1
1
1
1
1
1
1
1
1
1
1
1
1
1
1
1
1
1
1
1
1
1
1
1
1
1
1
1
1
1
1
1
1
1
1
1
1
1
1
1
1
1
1
1
1
1
1
1
1
1
1
1
1
1
1
1
1
1
1
1
1
1
1
1
1
1
1
1
1
1
1
1
1
1
1
1
1
1
1
1
1
1
1
1
1
1
1
1
1
1
1
1
1
1
1
1
1
1
1
1
1
1
1
1
1
1
1
1
1
1
1
1
1
1
1
1
1
1
1
1
1
1
1
1
1
1
1
1
1
1
1
1
1
1
1
1
1
1
1
1
1
1
1
1
1
1
1
1
1
1
1
1
1
1
1
1
1
1
1
1
1
1
1
1
1
1
1
1
1
1
1
1
1
1
1
1
1
1
1
1
1
1
1
1
1
1
1
1
1
1
1
1
1
1
1
1
1
1
1
1
1
1
1
1
1
1
1
1
1
1
1
1
1
1
1
1
1
1
1
1
1
1
1
1
1
1
1
1
1
1
1
1
1
1
1
1
1
1
1
1
1
1
1
1
1
1
1
1
1
1
1
1
1
1
1
1
1
1
1
1
1
1
1
1
1
1
1
1
1
1
1
1
1
1
1
1
1
1
1
1
1
1
1
1
1
1
1
1
1
1
1
1
1
1
1
1
1
1
1
1
1
1
1
1
1
1
1
1
1
1
1
1
1
1
1
1
1
1
1
1
1
1
1
1
1
1
1
1
1
1
1
1
1
1
1
1
1
1
1
1
1
1
1
1
1
1
1
1
1
1
1
1
1
1
1
1
1
1
1
1
1
1
1
1
1
1
1
1
1
1
1
1
1
1
1
1
1
1
1
1
1
1
1
1
1
1
1
1
1
1
1
1
1
1
1
1
1
1
1
1
1
1
1
1
1
1
1
1
1
1
1
1
1
1
1
1
1
1
1
1
1
1
1
1
1
1
1
1
1
1
1
1
1
1
1
1
1
1
1
1
1
1
1
1
1
1
1
1
1
1
1
1
1
1
1
1
1
1
1
1
1
1
1
1
1
1
1
1
1
1
1
1
1
1
1
1
1
1
1
1
1
1
1
1
1
1
1
1
1
1
1
1
1
1
1
1
1
1
1
1
1
1
1
1
1
1
1
1
1
1
1
1
1
1
1
1
1
1
1
1
1
1
1
1
1
1
1
1
1
1
1
1
1
1
1
1
1
1
1
1
1
1
1
1
1
1
1
1
1
1
1
1
1
1
1
1
1
1
1
1
1
1
1
1
1
1
1
1
1
1
1
1
1
1
1
1
1
1
1
1
1
1
1
1
1
1
1
1
1
1
1
1
1
1
1
1
1
1
1
1
1
1
1
1
1
1
1
1
1
1
1
1
1
1
1
1
1
1
1
1
1
1
1
1
1
1
1
1
1
1
1
1
1
1
1
1
1
1
1
1
1
1
1
1
1
1
1
1
1
1
1
1
1
1
1
1
1
1
1
1
1
1
1
1
1
1
1
1
1
1
1
1
1
1
1
1
1
1
1
VECTORS velocity float 
-12.3393 -12.3393 -12.3394
-11.1637 -12.2493 -12.2493
-8.72816 -12.2654 -12.2654
-5.45782 -12.2849 -12.2849
-1.86029 -12.2943 -12.2943
1.86031 -12.2943 -12.2943
5.45787 -12.2849 -12.2849
8.72816 -12.2654 -12.2654
11.1638 -12.2493 -12.2493
12.3393 -12.3393 -12.3394
-12.2493 -11.1637 -12.2493
-11.1162 -11.1162 -12.134
-8.71955 -11.1139 -12.1484
-5.45819 -11.1156 -12.169
-1.86089 -11.1171 -12.1791
1.86083 -11.1171 -12.1791
5.4582 -11.1156 -12.169
8.71954 -11.1139 -12.1484
11.1162 -11.1162 -12.134
12.2493 -11.1637 -12.2493
-12.2654 -8.72817 -12.2654
-11.1139 -8.71955 -12.1484
-8.72058 -8.72057 -12.1616
-5.46083 -8.72214 -12.1814
-1.862 -8.72295 -12.1914
1.86204 -8.72295 -12.1914
5.46085 -8.72214 -12.1814
8.72056 -8.72057 -12.1617
11.1139 -8.71953 -12.1484
12.2654 -8.72814 -12.2654
-12.2849 -5.45782 -12.2849
-11.1156 -5.4582 -12.169
-8.72215 -5.46081 -12.1815
-5.4632 -5.4632 -12.2006
-1.86312 -5.46428 -12.2103
1.86312 -5.46428 -12.2103
5.46321 -5.4632 -12.2007
8.72214 -5.46083 -12.1814
11.1156 -5.45818 -12.1689
12.2849 -5.45783 -12.2849
-12.2943 -1.86026 -12.2943
-11.1171 -1.86087 -12.1791
-8.72297 -1.862 -12.1914
-5.4643 -1.86311 -12.2104
-1.86364 -1.86363 -12.2198
1.86364 -1.86363 -12.2199
5.46425 -1.86311 -12.2103
8.72292 -1.862 -12.1914
11.1171 -1.86088 -12.1791
12.2942 -1.86028 -12.2943
-12.2942 1.86026 -12.2942
-11.1171 1.86089 -12.1791
-8.72296 1.86203 -12.1914
-5.46429 1.86311 -12.2103
-1.8636 1.86361 -12.2198
1.86363 1.86362 -12.2198
5.4643 1.86311 -12.2103
8.72298 1.86203 -12.1914
11.1172 1.86089 -12.1791
12.2943 1.86028 -12.2943
-12.2849 5.45788 -12.2849
-11.1156 5.4582 -12.169
-8.72217 5.4609 -12.1815
-5.4632 5.46316 -12.2007
-1.86313 5.46427 -12.2103
1.86308 5.46426 -12.2104
5.46317 5.46317 -12.2006
8.72215 5.46082 -12.1815
11.1156 5.45817 -12.169
12.2849 5.45784 -12.2849
-12.2654 8.72815 -12.2654
-11.1139 8.71952 -12.1484
-8.72058 8.72057 -12.1617
-5.46083 8.72215 -12.1815
-1.86199 8.72297 -12.1914
1.86204 8.72297 -12.1914
5.46084 8.72216 -12.1815
8.72057 8.72057 -12.1616
11.1139 8.71957 -12.1484
12.2654 8.72816 -12.2654
-12.2493 11.1638 -12.2493
-11.1162 11.1162 -12.134
-8.71956 11.1139 -12.1484
-5.45819 11.1156 -12.169
-1.86086 11.1171 -12.1791
1.86085 11.1171 -12.1791
5.45821 11.1156 -12.169
8.71953 11.1139 -12.1484
11.1162 11.1162 -12.134
12.2493 11.1637 -12.2493
-12.3393 12.3394 -12.3394
-11.1638 12.2493 -12.2493
-8.72816 12.2654 -12.2654
-5.45783 12.2848 -12.2849
-1.86028 12.2943 -12.2943
1.8603 12.2943 -12.2943
5.45785 12.2849 -12.2849
8.72816 12.2654 -12.2654
11.1637 12.2493 -12.2493
12.3394 12.3394 -12.3394
-12.2493 -12.2493 -11.1638
-11.1162 -12.134 -11.1162
-8.71956 -12.1484 -11.1139
-5.45818 -12.1689 -11.1156
-1.86088 -12.1791 -11.1171
1.86083 -12.1791 -11.1171
5.45822 -12.169 -11.1156
8.71953 -12.1484 -11.1139
11.1162 -12.134 -11.1162
12.2493 -12.2493 -11.1638
-12.134 -11.1162 -11.1162
-11.0411 -11.0411 -11.0411
-8.6986 -11.0333 -11.0333
-5.45329 -11.0332 -11.0332
-1.86002 -11.0343 -11.0343
1.86004 -11.0343 -11.0343
5.45324 -11.0332 -11.0332
8.69865 -11.0333 -11.0333
11.0411 -11.0411 -11.0411
12.134 -11.1162 -11.1162
-12.1484 -8.71954 -11.1139
-11.0333 -8.6986 -11.0333
-8.69648 -8.69646 -11.0243
-5.45452 -8.69647 -11.0236
-1.86082 -8.69672 -11.0247
1.8608 -8.69671 -11.0247
5.45453 -8.69648 -11.0236
8.69648 -8.69646 -11.0243
11.0333 -8.69861 -11.0333
12.1484 -8.71956 -11.1139
-12.1689 -5.45819 -11.1156
-11.0332 -5.45326 -11.0332
-8.69649 -5.45452 -11.0237
-5.45622 -5.45622 -11.0227
-1.86167 -5.457 -11.0236
1.86169 -5.457 -11.0236
5.45624 -5.45622 -11.0228
8.6965 -5.45451 -11.0236
11.0332 -5.45327 -11.0332
12.169 -5.45819 -11.1156
-12.1791 -1.86088 -11.1171
-11.0343 -1.86002 -11.0343
-8.69671 -1.8608 -11.0247
-5.45701 -1.86172 -11.0237
-1.86215 -1.86216 -11.0244
1.86218 -1.86214 -11.0244
5.45707 -1.86174 -11.0236
8.69673 -1.86078 -11.0247
11.0343 -1.86001 -11.0343
12.1791 -1.86087 -11.1171
-12.1791 1.86087 -11.1171
-11.0343 1.86001 -11.0342
-8.69675 1.86079 -11.0247
-5.45702 1.86172 -11.0236
-1.86218 1.86218 -11.0243
1.86218 1.86217 -11.0243
5.45705 1.86172 -11.0236
8.69673 1.86077 -11.0246
11.0343 1.86 -11.0343
12.1791 1.86087 -11.1171
-12.1689 5.45821 -11.1156
-11.0332 5.45329 -11.0332
-8.69649 5.45451 -11.0237
-5.45622 5.45621 -11.0228
-1.86168 5.45705 -11.0236
1.8617 5.45706 -11.0237
5.45624 5.45622 -11.0227
8.69652 5.45454 -11.0237
11.0332 5.45328 -11.0332
12.169 5.45822 -11.1156
-12.1484 8.71954 -11.1139
-11.0333 8.69864 -11.0333
-8.69647 8.6965 -11.0243
-5.45452 8.69652 -11.0237
-1.86082 8.69674 -11.0246
1.86077 8.69674 -11.0247
5.45452 8.69651 -11.0237
8.6965 8.69651 -11.0243
11.0333 8.69863 -11.0333
12.1484 8.71953 -11.1139
-12.134 11.1162 -11.1162
-11.0411 11.0411 -11.0411
-8.69861 11.0333 -11.0333
-5.4533 11.0332 -11.0332
-1.86002 11.0343 -11.0343
1.86004 11.0343 -11.0343
5.45324 11.0332 -11.0332
8.69865 11.0333 -11.0333
11.0411 11.0411 -11.0411
12.134 11.1162 -11.1162
-12.2493 12.2493 -11.1638
-11.1162 12.134 -11.1162
-8.71957 12.1484 -11.1139
-5.4582 12.169 -11.1156
-1.86089 12.1791 -11.1171
1.86082 12.1791 -11.1171
5.45822 12.169 -11.1156
8.71953 12.1484 -11.1139
11.1162 12.134 -11.1162
12.2493 12.2493 -11.1638
-12.2654 -12.2654 -8.72818
-11.1139 -12.1484 -8.71955
-8.7206 -12.1616 -8.72056
-5.46085 -12.1815 -8.72216
-1.86201 -12.1914 -8.72295
1.86205 -12.1914 -8.72296
5.46086 -12.1815 -8.72216
8.72058 -12.1617 -8.72056
11.1139 -12.1484 -8.71957
12.2654 -12.2654 -8.72818
-12.1484 -11.1139 -8.71955
-11.0333 -11.0333 -8.6986
-8.69648 -11.0243 -8.69647
-5.45453 -11.0237 -8.69651
-1.86082 -11.0247 -8.69671
1.8608 -11.0247 -8.69671
5.45454 -11.0237 -8.6965
8.69651 -11.0243 -8.69647
11.0333 -11.0333 -8.69861
12.1485 -11.1139 -8.71957
-12.1616 -8.72059 -8.72057
-11.0243 -8.69648 -8.69647
-8.69375 -8.69374 -8.69377
-5.45556 -8.69352 -8.69348
-1.86152 -8.69368 -8.69368
1.8615 -8.69368 -8.69368
5.45555 -8.69351 -8.69347
8.69374 -8.69377 -8.69379
11.0243 -8.69647 -8.69648
12.1617 -8.72059 -8.72058
-12.1815 -5.46084 -8.72215
-11.0237 -5.45453 -8.69647
-8.69353 -5.45557 -8.69349
-5.45715 -5.45713 -8.69316
-1.86241 -5.45793 -8.6933
1.86238 -5.45794 -8.69329
5.45715 -5.45711 -8.69322
8.69346 -5.45561 -8.69346
11.0236 -5.45453 -8.69649
12.1815 -5.46084 -8.72214
-12.1914 -1.86202 -8.72297
-11.0247 -1.8608 -8.69673
-8.69368 -1.86156 -8.69368
-5.45795 -1.86241 -8.69334
-1.86285 -1.86283 -8.69339
1.86282 -1.86285 -8.69343
5.45789 -1.86239 -8.69329
8.69363 -1.86158 -8.69369
11.0247 -1.86081 -8.69674
12.1914 -1.86201 -8.72297
-12.1914 1.86202 -8.72296
-11.0247 1.86076 -8.69671
-8.69367 1.86151 -8.69369
-5.45792 1.86237 -8.69326
-1.86283 1.86284 -8.69335
1.86284 1.86282 -8.69332
5.45795 1.86242 -8.69331
8.69367 1.86146 -8.69368
11.0247 1.86079 -8.69671
12.1914 1.862 -8.72296
-12.1814 5.46081 -8.72218
-11.0236 5.45453 -8.69651
-8.69349 5.45553 -8.69349
-5.45714 5.45712 -8.69319
-1.86242 5.45793 -8.69332
1.86238 5.45791 -8.69333
5.45713 5.45715 -8.69314
8.6934 5.45553 -8.69352
11.0236 5.45452 -8.69651
12.1814 5.46081 -8.72218
-12.1616 8.72057 -8.72059
-11.0242 8.69652 -8.69646
-8.69372 8.69372 -8.69377
-5.45552 8.69346 -8.69352
-1.86151 8.69365 -8.69368
1.86151 8.69365 -8.69365
5.45556 8.69349 -8.69354
8.69373 8.69372 -8.69374
11.0243 8.6965 -8.69648
12.1617 8.72057 -8.72058
-12.1484 11.1139 -8.71958
-11.0333 11.0333 -8.69862
-8.69645 11.0243 -8.69647
-5.4545 11.0236 -8.69651
-1.8608 11.0246 -8.69673
1.86076 11.0246 -8.69674
5.45454 11.0236 -8.69649
8.69651 11.0242 -8.6965
11.0333 11.0333 -8.69862
12.1484 11.1139 -8.71958
-12.2654 12.2654 -8.72819
-11.1139 12.1484 -8.71957
-8.72056 12.1616 -8.72059
-5.46081 12.1814 -8.72217
-1.862 12.1914 -8.72297
1.86204 12.1914 -8.72297
5.46084 12.1815 -8.72216
8.72058 12.1616 -8.7206
11.1139 12.1484 -8.71958
12.2654 12.2654 -8.7282
-12.2848 -12.2848 -5.45787
-11.1156 -12.1689 -5.4582
-8.72211 -12.1815 -5.46083
-5.46318 -12.2006 -5.46322
-1.86309 -12.2103 -5.46429
1.8631 -12.2103 -5.46429
5.46317 -12.2006 -5.46323
8.72212 -12.1814 -5.46082
11.1156 -12.1689 -5.45821
12.2848 -12.2848 -5.45786
-12.1689 -11.1156 -5.45821
-11.0331 -11.0331 -5.45328
-8.69646 -11.0236 -5.45458
-5.45621 -11.0227 -5.45626
-1.86168 -11.0236 -5.45701
1.86168 -11.0236 -5.45701
5.45617 -11.0228 -5.45625
8.69643 -11.0236 -5.45451
11.0331 -11.0331 -5.45329
12.1689 -11.1156 -5.45818
-12.1815 -8.72211 -5.46082
-11.0237 -8.69646 -5.45452
-8.69351 -8.69349 -5.45559
-5.45713 -8.69313 -5.45709
-1.86241 -8.6933 -5.45792
1.86239 -8.69329 -5.45793
5.45714 -8.69315 -5.45708
8.69349 -8.69347 -5.45561
11.0237 -8.69648 -5.45454
12.1815 -8.72212 -5.46086
-12.2006 -5.46318 -5.46323
-11.0227 -5.45621 -5.45623
-8.69313 -5.45711 -5.45713
-5.45865 -5.45865 -5.45868
-1.86322 -5.45949 -5.45945
1.8633 -5.45947 -5.45945
5.45873 -5.45868 -5.45872
8.69319 -5.45708 -5.45707
11.0228 -5.45622 -5.45625
12.2007 -5.46318 -5.46321
-12.2103 -1.8631 -5.46431
-11.0236 -1.86169 -5.45704
-8.6933 -1.8624 -5.45794
-5.45948 -1.86325 -5.45949
-1.86372 -1.86373 -5.46022
1.8637 -1.86371 -5.46026
5.45946 -1.86324 -5.45944
8.69331 -1.86239 -5.45797
11.0236 -1.86169 -5.45702
12.2103 -1.86307 -5.46431
-12.2103 1.86313 -5.46428
-11.0236 1.86166 -5.457
-8.69331 1.8624 -5.45793
-5.45948 1.86328 -5.45943
-1.86374 1.86371 -5.46018
1.86369 1.86369 -5.46017
5.45945 1.86327 -5.45949
8.6933 1.8624 -5.45792
11.0236 1.86166 -5.45701
12.2103 1.86309 -5.4643
-12.2006 5.46318 -5.46321
-11.0227 5.45617 -5.45628
-8.69314 5.45715 -5.45711
-5.45864 5.45873 -5.45869
-1.86326 5.45943 -5.45952
1.86334 5.45946 -5.45951
5.45875 5.4587 -5.45866
8.69321 5.45716 -5.45712
11.0228 5.45622 -5.45627
12.2007 5.46319 -5.46322
-12.1815 8.72212 -5.46083
-11.0237 8.69644 -5.45453
-8.69352 8.69348 -5.45563
-5.45715 8.6932 -5.45716
-1.86242 8.69332 -5.45792
1.86241 8.69333 -5.4579
5.45714 8.69318 -5.45719
8.69343 8.69349 -5.45558
11.0236 8.6964 -5.45456
12.1815 8.72214 -5.46084
-12.1689 11.1156 -5.45821
-11.0331 11.0331 -5.45329
-8.69647 11.0236 -5.45453
-5.45621 11.0228 -5.45627
-1.86169 11.0236 -5.45701
1.86167 11.0236 -5.45702
5.45618 11.0228 -5.45624
8.69644 11.0236 -5.45458
11.0331 11.0331 -5.45328
12.1689 11.1156 -5.45821
-12.2849 12.2849 -5.45787
-11.1156 12.1689 -5.45821
-8.72213 12.1815 -5.46086
-5.46318 12.2007 -5.4632
-1.86309 12.2103 -5.46432
1.8631 12.2103 -5.46431
5.46318 12.2007 -5.46321
8.72213 12.1815 -5.46084
11.1156 12.1689 -5.45821
12.2849 12.2849 -5.45787
-12.2943 -12.2943 -1.86033
-11.1171 -12.1791 -1.86088
-8.72295 -12.1914 -1.86203
-5.46429 -12.2103 -1.86314
-1.86362 -12.2198 -1.86364
1.86365 -12.2199 -1.86362
5.46425 -12.2103 -1.86317
8.72295 -12.1914 -1.86203
11.1171 -12.1791 -1.86091
12.2942 -12.2943 -1.86032
-12.1791 -11.1171 -1.86092
-11.0343 -11.0343 -1.86003
-8.69671 -11.0246 -1.86075
-5.45701 -11.0236 -1.86172
-1.86215 -11.0244 -1.86216
1.86219 -11.0244 -1.86216
5.45705 -11.0236 -1.86174
8.69675 -11.0247 -1.86079
11.0343 -11.0342 -1.86002
12.1791 -11.1171 -1.8609
-12.1914 -8.72296 -1.86202
-11.0246 -8.69672 -1.8608
-8.69365 -8.69367 -1.86158
-5.45791 -8.6933 -1.86236
-1.86283 -8.69338 -1.86286
1.86282 -8.69341 -1.86286
5.45791 -8.69328 -1.86236
8.6936 -8.69367 -1.8616
11.0246 -8.69671 -1.86078
12.1913 -8.72296 -1.862
-12.2103 -5.46431 -1.86313
-11.0236 -5.45702 -1.86168
-8.6933 -5.45792 -1.86239
-5.45948 -5.45945 -1.86329
-1.86373 -5.46022 -1.86372
1.8637 -5.46024 -1.86371
5.45945 -5.45946 -1.86332
8.69333 -5.45794 -1.86235
11.0237 -5.457 -1.86169
12.2104 -5.46429 -1.86313
-12.2198 -1.86359 -1.86361
-11.0244 -1.86214 -1.86218
-8.69338 -1.86285 -1.86285
-5.4602 -1.86372 -1.86375
-1.86415 -1.86415 -1.86419
1.86416 -1.86418 -1.8642
5.46019 -1.86371 -1.86368
8.69334 -1.86285 -1.86288
11.0243 -1.86215 -1.86217
12.2198 -1.86363 -1.86362
-12.2198 1.8636 -1.86361
-11.0243 1.86218 -1.86215
-8.69337 1.86283 -1.86284
-5.4602 1.86372 -1.86372
-1.86414 1.86415 -1.86409
1.86415 1.86412 -1.86409
5.4602 1.86372 -1.86373
8.69333 1.86282 -1.86285
11.0243 1.86219 -1.86216
12.2198 1.86362 -1.86362
-12.2103 5.46428 -1.86314
-11.0236 5.45704 -1.86175
-8.69329 5.45787 -1.86239
-5.45949 5.45946 -1.86329
-1.86372 5.46015 -1.86377
1.8637 5.46015 -1.86376
5.45943 5.45948 -1.86327
8.69333 5.45787 -1.86242
11.0236 5.45703 -1.86178
12.2103 5.46426 -1.86316
-12.1914 8.72289 -1.86207
-11.0246 8.69671 -1.86081
-8.69365 8.69361 -1.8616
-5.4579 8.69333 -1.8624
-1.86282 8.69335 -1.86284
1.86283 8.69334 -1.86283
5.45791 8.69334 -1.86248
8.69361 8.69359 -1.86157
11.0247 8.69673 -1.8608
12.1914 8.7229 -1.86208
-12.1791 11.1171 -1.8609
-11.0342 11.0343 -1.86007
-8.69671 11.0246 -1.86082
-5.45701 11.0236 -1.86175
-1.86215 11.0243 -1.8622
1.86219 11.0243 -1.86219
5.45703 11.0237 -1.86174
8.69673 11.0246 -1.86082
11.0343 11.0343 -1.86007
12.1791 11.1171 -1.8609
-12.2942 12.2942 -1.86034
-11.1171 12.1791 -1.8609
-8.72295 12.1914 -1.86211
-5.46428 12.2104 -1.86315
-1.86363 12.2198 -1.86364
1.86364 12.2198 -1.86364
5.46427 12.2104 -1.86316
8.72294 12.1913 -1.86207
11.1171 12.1791 -1.8609
12.2943 12.2942 -1.86035
-12.2943 -12.2942 1.86026
-11.1171 -12.1791 1.86082
-8.72295 -12.1914 1.86201
-5.46428 -12.2103 1.86309
-1.86362 -12.2198 1.86362
1.86363 -12.2198 1.86363
5.46425 -12.2104 1.86308
8.72293 -12.1914 1.86202
11.1171 -12.1791 1.86084
12.2942 -12.2943 1.86027
-12.1791 -11.1171 1.86087
-11.0343 -11.0343 1.86
-8.69673 -11.0246 1.86079
-5.45701 -11.0236 1.86163
-1.86216 -11.0244 1.86214
1.86219 -11.0243 1.86214
5.45705 -11.0236 1.86166
8.69674 -11.0246 1.86084
11.0343 -11.0343 1.86002
12.1791 -11.1171 1.86083
-12.1914 -8.72296 1.86201
-11.0246 -8.69672 1.86082
-8.69366 -8.69366 1.86145
-5.45793 -8.69329 1.86243
-1.86283 -8.69338 1.86282
1.86286 -8.69331 1.86282
5.45789 -8.69331 1.86245
8.69363 -8.69364 1.86144
11.0247 -8.69673 1.8608
12.1914 -8.72296 1.86198
-12.2103 -5.46429 1.86304
-11.0236 -5.45701 1.86164
-8.69328 -5.4579 1.8624
-5.45947 -5.45946 1.86317
-1.86373 -5.4602 1.86374
1.86372 -5.46016 1.86374
5.45942 -5.4595 1.8632
8.69332 -5.45788 1.86242
11.0236 -5.45702 1.86163
12.2103 -5.46429 1.86308
-12.2198 -1.86359 1.8636
-11.0244 -1.86216 1.86212
-8.69338 -1.86283 1.8628
-5.4602 -1.86374 1.8637
-1.86414 -1.86416 1.86414
1.86416 -1.86406 1.86408
5.46019 -1.86376 1.86372
8.69337 -1.86284 1.86277
11.0243 -1.86217 1.86211
12.2198 -1.8636 1.8636
-12.2198 1.86363 1.86363
-11.0244 1.86218 1.86215
-8.69337 1.86286 1.8628
-5.46018 1.86369 1.86374
-1.86415 1.86416 1.86419
1.86417 1.86421 1.86422
5.46022 1.86366 1.86369
8.6934 1.86289 1.86285
11.0243 1.86216 1.86215
12.2199 1.86364 1.86363
-12.2103 5.46429 1.86304
-11.0236 5.45704 1.86163
-8.69329 5.45791 1.86242
-5.45948 5.45943 1.86324
-1.86373 5.46018 1.86368
1.86371 5.46026 1.86368
5.45944 5.45939 1.86331
8.6933 5.45794 1.86237
11.0236 5.45704 1.86162
12.2103 5.46429 1.86307
-12.1914 8.72291 1.86194
-11.0246 8.69671 1.86078
-8.69365 8.69363 1.86144
-5.45793 8.69332 1.86238
-1.86283 8.69333 1.86282
1.86285 8.69346 1.86283
5.45788 8.69323 1.86232
8.6936 8.6937 1.86149
11.0246 8.6967 1.86081
12.1914 8.72291 1.86196
-12.1791 11.1171 1.86081
-11.0343 11.0343 1.85998
-8.69673 11.0246 1.86079
-5.45701 11.0236 1.86161
-1.86217 11.0243 1.86213
1.86217 11.0244 1.86213
5.45703 11.0235 1.86165
8.69671 11.0247 1.86073
11.0343 11.0343 1.85994
12.1791 11.1171 1.8608
-12.2942 12.2943 1.86024
-11.1171 12.1791 1.86083
-8.72296 12.1914 1.86196
-5.46427 12.2103 1.86308
-1.86364 12.2198 1.86362
1.86363 12.2199 1.86362
5.46426 12.2102 1.86306
8.72292 12.1915 1.86194
11.1171 12.1791 1.8608
12.2942 12.2942 1.86027
-12.2849 -12.2849 5.45778
-11.1156 -12.1689 5.45815
-8.72212 -12.1815 5.46077
-5.46318 -12.2006 5.46312
-1.86309 -12.2103 5.46427
1.86311 -12.2103 5.46427
5.4632 -12.2006 5.46312
8.72212 -12.1815 5.4608
11.1156 -12.1689 5.45814
12.2849 -12.2849 5.45779
-12.1689 -11.1156 5.45815
-11.0331 -11.0332 5.45318
-8.69646 -11.0237 5.45454
-5.4562 -11.0227 5.45615
-1.86169 -11.0236 5.45698
1.86166 -11.0236 5.45697
5.45617 -11.0227 5.45614
8.69644 -11.0237 5.45455
11.0331 -11.0331 5.45319
12.1689 -11.1156 5.45816
-12.1815 -8.72214 5.46081
-11.0237 -8.69648 5.45452
-8.69349 -8.6935 5.45549
-5.45711 -8.69315 5.4572
-1.86241 -8.69328 5.45786
1.86239 -8.69332 5.45786
5.45715 -8.69314 5.45717
8.69349 -8.69351 5.45545
11.0236 -8.69648 5.45455
12.1815 -8.72213 5.4608
-12.2006 -5.4632 5.46312
-11.0227 -5.45621 5.45621
-8.69314 -5.45712 5.45717
-5.45864 -5.45864 5.45856
-1.86327 -5.45947 5.45949
1.86331 -5.45948 5.45949
5.45871 -5.45864 5.45862
8.69319 -5.45712 5.4572
11.0228 -5.4562 5.45616
12.2007 -5.46319 5.46313
-12.2103 -1.8631 5.46426
-11.0236 -1.86168 5.45693
-8.69328 -1.8624 5.45785
-5.45947 -1.86324 5.4595
-1.86372 -1.86372 5.46016
1.8637 -1.86376 5.46013
5.45946 -1.86324 5.45949
8.69331 -1.8624 5.45783
11.0236 -1.86169 5.45696
12.2103 -1.86311 5.46426
-12.2103 1.8631 5.46425
-11.0236 1.86165 5.45696
-8.69329 1.86239 5.45784
-5.45948 1.86328 5.45945
-1.86373 1.8637 5.46023
1.86369 1.86367 5.46024
5.45941 1.8633 5.45942
8.69328 1.86238 5.45783
11.0236 1.86166 5.45702
12.2103 1.86308 5.46426
-12.2006 5.46317 5.46316
-11.0227 5.45618 5.45614
-8.69312 5.45711 5.45717
-5.45862 5.45871 5.45866
-1.86325 5.45947 5.4594
1.86333 5.45941 5.45946
5.45871 5.45875 5.45868
8.69322 5.45711 5.45716
11.0228 5.4562 5.45612
12.2007 5.46323 5.46314
-12.1815 8.72212 5.46079
-11.0237 8.6964 5.45452
-8.6935 8.69346 5.45547
-5.45712 8.69318 5.45715
-1.86241 8.69332 5.45784
1.86238 8.69328 5.45787
5.45716 8.69321 5.45709
8.69348 8.69343 5.45549
11.0237 8.69642 5.45453
12.1814 8.72217 5.4608
-12.1689 11.1156 5.45819
-11.0331 11.0331 5.45316
-8.69646 11.0236 5.45453
-5.45621 11.0228 5.45614
-1.86168 11.0236 5.45697
1.86169 11.0236 5.45696
5.45621 11.0228 5.45616
8.69643 11.0236 5.45452
11.0331 11.0331 5.45321
12.1689 11.1156 5.45819
-12.2849 12.2849 5.45779
-11.1156 12.1689 5.45818
-8.72213 12.1815 5.46077
-5.46318 12.2007 5.46312
-1.86309 12.2103 5.46423
1.86312 12.2103 5.46424
5.46322 12.2007 5.46313
8.72218 12.1814 5.46078
11.1156 12.1689 5.45817
12.2849 12.2849 5.45778
-12.2654 -12.2654 8.72816
-11.1139 -12.1484 8.7195
-8.72056 -12.1616 8.72048