# vtk DataFile Version 3.0 
Lennard-Jones particle simulation 
ASCII 
DATASET UNSTRUCTURED_GRID 
POINTS 1000 float 
-9.12767 -9.12767 -9.12768
-7.11896 -9.06625 -9.06625
-4.28269 -9.07807 -9.07807
-0.919082 -9.09097 -9.09098
2.66676 -9.09703 -9.09703
6.33325 -9.09703 -9.09703
9.91912 -9.09098 -9.09098
13.2827 -9.07807 -9.07807
16.119 -9.06625 -9.06626
18.1277 -9.12768 -9.12768
-9.06625 -7.11896 -9.06625
-7.09189 -7.09189 -8.98711
-4.27806 -7.08918 -8.99721
-0.919412 -7.09008 -9.01056
2.66636 -7.09106 -9.01697
6.33361 -7.09105 -9.01697
9.91942 -7.09008 -9.01056
13.2781 -7.08918 -8.9972
16.0919 -7.09189 -8.98711
18.0662 -7.11897 -9.06626
-9.07807 -4.2827 -9.07807
-7.08918 -4.27805 -8.9972
-4.27884 -4.27883 -9.00591
-0.921416 -4.28033 -9.01851
2.66554 -4.28111 -9.02475
6.33449 -4.28111 -9.02475
9.92143 -4.28033 -9.01851
13.2788 -4.27883 -9.00592
16.0892 -4.27805 -8.99722
18.0781 -4.28269 -9.07808
-9.09098 -0.919083 -9.09098
-7.09008 -0.919419 -9.01056
-4.28033 -0.921401 -9.01854
-0.92331 -0.923309 -9.03062
2.6647 -0.924208 -9.03666
6.3353 -0.924209 -9.03667
9.92331 -0.923309 -9.03066
13.2803 -0.921413 -9.01851
16.0901 -0.919404 -9.01055
18.091 -0.919091 -9.09097
-9.09703 2.66679 -9.09704
-7.09107 2.66637 -9.01698
-4.28113 2.66554 -9.02474
-0.92422 2.6647 -9.03669
2.66429 2.6643 -9.04257
6.33571 2.6643 -9.04258
9.92419 2.6647 -9.03665
13.2811 2.66554 -9.02477
16.091 2.66636 -9.01698
18.097 2.66677 -9.09703
-9.09702 6.33322 -9.09702
-7.09105 6.33364 -9.01696
-4.28112 6.33448 -9.02475
-0.924212 6.3353 -9.03662
2.66432 6.33568 -9.04254
6.3357 6.33569 -9.04253
9.92422 6.3353 -9.03666
13.2811 6.33448 -9.02474
16.0911 6.33364 -9.01697
18.0971 6.33324 -9.09703
-9.09099 9.91912 -9.091
-7.09009 9.91942 -9.01058
-4.28035 9.92146 -9.01853
-0.923316 9.92329 -9.03065
2.66469 9.92421 -9.03668
6.33528 9.9242 -9.03668
9.92329 9.9233 -9.03063
13.2803 9.92141 -9.01854
16.0901 9.9194 -9.01057
18.091 9.9191 -9.09099
-9.07807 13.2827 -9.07808
-7.08918 13.278 -8.99721
-4.27884 13.2788 -9.00592
-0.921417 13.2803 -9.01854
2.66554 13.2811 -9.02474
6.33449 13.2811 -9.02474
9.92143 13.2803 -9.01856
13.2788 13.2788 -9.00591
16.0892 13.2781 -8.99721
18.0781 13.2827 -9.07808
-9.06625 16.119 -9.06626
-7.0919 16.0919 -8.98712
-4.27806 16.0892 -8.99721
-0.919415 16.0901 -9.01057
2.66637 16.0911 -9.01699
6.33362 16.0911 -9.01698
9.91943 16.0901 -9.01056
13.278 16.0892 -8.99722
16.0919 16.0919 -8.98711
18.0663 16.119 -9.06626
-9.12768 18.1277 -9.12768
-7.11897 18.0662 -9.06626
-4.2827 18.0781 -9.07808
-0.91909 18.091 -9.09098
2.66677 18.097 -9.09704
6.33325 18.097 -9.09704
9.9191 18.091 -9.09099
13.2827 18.0781 -9.07808
16.119 18.0662 -9.06626
18.1277 18.1277 -9.12769
-9.06625 -9.06625 -7.11898
-7.0919 -8.98711 -7.09189
-4.27806 -8.99721 -7.08918
-0.91941 -9.01055 -7.09009
2.66636 -9.01698 -7.09106
6.33361 -9.01698 -7.09106
9.91943 -9.01056 -7.09009
13.278 -8.99721 -7.08918
16.0919 -8.98711 -7.09191
18.0662 -9.06625 -7.11897
-8.98711 -7.09189 -7.09189
-7.04758 -7.04758 -7.04759
-4.26582 -7.04097 -7.04096
-0.91633 -7.04059 -7.0406
2.66691 -7.04123 -7.04123
6.3331 -7.04123 -7.04123
9.9163 -7.04059 -7.0406
13.2659 -7.04097 -7.04096
16.0476 -7.04759 -7.04759
17.9871 -7.09189 -7.0919
-8.99722 -4.27805 -7.08918
-7.04098 -4.26582 -7.04096
-4.26443 -4.26442 -7.03373
-0.917354 -4.26489 -7.03308
2.66632 -4.26532 -7.0337
6.33366 -4.26531 -7.0337
9.91736 -4.2649 -7.03308
13.2644 -4.26442 -7.03374
16.041 -4.26583 -7.04097
17.9972 -4.27806 -7.08919
-9.01054 -0.919414 -7.09009
-7.04058 -0.916312 -7.0406
-4.2649 -0.91735 -7.03311
-0.91881 -0.918808 -7.03229
2.66565 -0.919516 -7.03283
6.33436 -0.919515 -7.03283
9.91882 -0.918809 -7.03233
13.2649 -0.917346 -7.03307
16.0406 -0.916321 -7.04059
18.0106 -0.919416 -7.09008
-9.01697 2.66636 -7.09107
-7.04122 2.66691 -7.04124
-4.26531 2.66633 -7.0337
-0.919519 2.66562 -7.03285
2.66528 2.66527 -7.03327
6.33474 2.66529 -7.03328
9.91956 2.66561 -7.03282
13.2653 2.66635 -7.03372
16.0412 2.66692 -7.04123
18.017 2.66636 -7.09106
-9.017 6.33363 -7.09105
-7.04126 6.33309 -7.04122
-4.26534 6.33366 -7.03371
-0.919526 6.33438 -7.03279
2.66526 6.33474 -7.03326
6.33474 6.33473 -7.03325
9.91954 6.33437 -7.03283
13.2653 6.33365 -7.03369
16.0412 6.33307 -7.04123
18.017 6.33363 -7.09106
-9.01055 9.91942 -7.0901
-7.04058 9.91633 -7.04062
-4.2649 9.91734 -7.03309
-0.918813 9.9188 -7.03233
2.66564 9.91954 -7.03285
6.33436 9.91955 -7.03285
9.91883 9.91881 -7.0323
13.2649 9.91736 -7.03311
16.0406 9.91632 -7.04061
18.0106 9.91943 -7.0901
-8.99722 13.278 -7.08919
-7.04097 13.2658 -7.04096
-4.26443 13.2644 -7.03374
-0.917351 13.2649 -7.03311
2.66632 13.2653 -7.0337
6.33365 13.2653 -7.0337
9.91735 13.2649 -7.03313
13.2644 13.2645 -7.03373
16.041 13.2658 -7.04098
17.9972 13.278 -7.08919
-8.98711 16.0919 -7.09191
-7.04759 16.0476 -7.0476
-4.26582 16.041 -7.04097
-0.916336 16.0406 -7.04062
2.66691 16.0412 -7.04124
6.3331 16.0413 -7.04124
9.9163 16.0406 -7.0406
13.2659 16.041 -7.04098
16.0476 16.0476 -7.0476
17.9871 16.0919 -7.09191
-9.06626 18.0663 -7.11897
-7.09191 17.9871 -7.0919
-4.27807 17.9972 -7.0892
-0.919417 18.0106 -7.09009
2.66636 18.017 -7.09107
6.3336 18.017 -7.09107
9.91943 18.0106 -7.0901
13.278 17.9972 -7.08919
16.0919 17.9871 -7.09191
18.0662 18.0663 -7.11898
-9.07808 -9.07808 -4.28271
-7.08919 -8.99723 -4.27806
-4.27885 -9.0059 -4.27883
-0.921427 -9.01855 -4.28034
2.66553 -9.02476 -4.28112
6.33449 -9.02476 -4.28112
9.92144 -9.01853 -4.28034
13.2788 -9.00593 -4.27883
16.0892 -8.99722 -4.27807
18.0781 -9.07808 -4.28271
-8.99723 -7.08919 -4.27806
-7.04098 -7.04098 -4.26582
-4.26443 -7.03372 -4.26442
-0.91736 -7.03312 -4.26491
2.66632 -7.0337 -4.26531
6.33367 -7.0337 -4.26531
9.91736 -7.0331 -4.26491
13.2645 -7.03374 -4.26442
16.041 -7.04097 -4.26583
17.9972 -7.08919 -4.27807
-9.0059 -4.27885 -4.27883
-7.03372 -4.26443 -4.26442
-4.26269 -4.26268 -4.2627
-0.918238 -4.26303 -4.263
2.6658 -4.2634 -4.26341
6.33419 -4.26341 -4.2634
9.91823 -4.26302 -4.26299
13.2627 -4.26271 -4.26272
16.0337 -4.26443 -4.26443
18.0059 -4.27885 -4.27884
-9.01855 -0.921424 -4.28033
-7.03312 -0.91736 -4.26489
-4.26304 -0.918239 -4.26301
-0.919623 -0.91961 -4.2633
2.66511 -0.920321 -4.26367
6.33487 -0.920329 -4.26366
9.91962 -0.919593 -4.26334
13.263 -0.918266 -4.26299
16.0331 -0.917359 -4.2649
18.0185 -0.921424 -4.28033
-9.02476 2.66552 -4.28113
-7.03371 2.66633 -4.26532
-4.26341 2.66577 -4.26341
-0.920335 2.66511 -4.26369
2.66475 2.66477 -4.264
6.33522 2.66475 -4.26402
9.9203 2.66512 -4.26366
13.2634 2.66576 -4.26341
16.0337 2.66633 -4.26533
18.0247 2.66553 -4.28113
-9.02477 6.33448 -4.28112
-7.03372 6.33364 -4.26531
-4.2634 6.33419 -4.26341
-0.920318 6.33486 -4.26364
2.66477 6.33524 -4.26397
6.33524 6.33523 -4.26395
9.92034 6.3349 -4.26367
13.2634 6.33416 -4.2634
16.0337 6.33366 -4.26531
18.0248 6.33446 -4.28112
-9.01851 9.92141 -4.28035
-7.03308 9.91736 -4.26491
-4.26301 9.91822 -4.26301
-0.919614 9.9196 -4.26332
2.6651 9.92032 -4.26368
6.33487 9.92031 -4.26369
9.9196 9.91962 -4.26329
13.263 9.91822 -4.26303
16.0331 9.91735 -4.26491
18.0185 9.92141 -4.28036
-9.00588 13.2788 -4.27885
-7.0337 13.2645 -4.26442
-4.26267 13.2627 -4.2627
-0.91821 13.263 -4.26303
2.66581 13.2634 -4.2634
6.3342 13.2634 -4.26339
9.91824 13.263 -4.26304
13.2627 13.2627 -4.26268
16.0337 13.2644 -4.26444
18.0059 13.2788 -4.27885
-8.9972 16.0892 -4.27808
-7.04096 16.041 -4.26584
-4.26441 16.0337 -4.26443
-0.917338 16.0331 -4.26492
2.66633 16.0337 -4.26533
6.33364 16.0337 -4.26533
9.91736 16.0331 -4.2649
13.2645 16.0337 -4.26445
16.041 16.041 -4.26583
17.9972 16.0892 -4.27808
-9.07806 18.0781 -4.28272
-7.08917 17.9972 -4.27807
-4.27883 18.0059 -4.27885
-0.921405 18.0185 -4.28035
2.66553 18.0248 -4.28113
6.33449 18.0247 -4.28113
9.92142 18.0185 -4.28034
13.2788 18.0059 -4.27885
16.0892 17.9972 -4.27808
18.0781 18.0781 -4.28272
-9.09095 -9.09095 -0.919114
-7.09005 -9.01053 -0.91942
-4.28031 -9.01852 -0.921417
-0.923298 -9.03061 -0.923324
2.66472 -9.03666 -0.924214
6.33529 -9.03666 -0.924215
9.92329 -9.03062 -0.923332
13.2803 -9.0185 -0.921411
16.0901 -9.01054 -0.919427
18.091 -9.09095 -0.919114
-9.01053 -7.09005 -0.919426
-7.04056 -7.04056 -0.916328
-4.26488 -7.03309 -0.917389
-0.918802 -7.03229 -0.918837
2.66565 -7.03283 -0.919517
6.33435 -7.03283 -0.919521
9.91878 -7.0323 -0.918832
13.2649 -7.03307 -0.917349
16.0405 -7.04057 -0.916332
18.0105 -7.09006 -0.91941
-9.01852 -4.28031 -0.921412
-7.03309 -4.26488 -0.917353
-4.26302 -4.26301 -0.918257
-0.919611 -4.26328 -0.919584
2.66511 -4.26367 -0.920319
6.33488 -4.26366 -0.920323
9.91962 -4.26329 -0.919575
13.263 -4.26299 -0.918271
16.0331 -4.26489 -0.917364
18.0185 -4.28031 -0.921433
-9.03061 -0.923297 -0.923328
-7.03228 -0.918804 -0.918815
-4.26328 -0.919597 -0.919608
-0.920953 -0.92095 -0.92097
2.66447 -0.921691 -0.921668
6.33558 -0.921678 -0.921666
9.92101 -0.92097 -0.921002
13.2633 -0.919577 -0.91957
16.0323 -0.918814 -0.918832
18.0306 -0.923301 -0.923318
-9.03666 2.66471 -0.924228
-7.03283 2.66564 -0.919538
-4.26367 2.66511 -0.920332
-0.921687 2.66445 -0.921695
2.66408 2.66407 -0.922367
6.33591 2.66409 -0.922388
9.92167 2.66446 -0.921657
13.2637 2.66512 -0.920349
16.0328 2.66564 -0.919529
18.0367 2.66473 -0.924226
-9.03666 6.33531 -0.924205
-7.03283 6.33434 -0.919515
-4.26367 6.33489 -0.920321
-0.921687 6.33556 -0.921651
2.66407 6.33591 -0.922335
6.3359 6.3359 -0.922325
9.92166 6.33556 -0.921697
13.2637 6.33488 -0.920317
16.0328 6.33434 -0.919518
18.0367 6.33528 -0.924218
-9.03062 9.9233 -0.923322
-7.03229 9.91878 -0.918853
-4.26328 9.91962 -0.919597
-0.920942 9.92101 -0.920981
2.66445 9.92166 -0.921712
6.33561 9.92167 -0.921708
9.92102 9.92098 -0.920955
13.2633 9.91963 -0.919607
16.0323 9.91881 -0.918846
18.0307 9.9233 -0.923329
-9.01853 13.2803 -0.921419
-7.0331 13.2649 -0.91736
-4.26303 13.263 -0.918285
-0.91962 13.2633 -0.919629
2.6651 13.2637 -0.920322
6.33489 13.2637 -0.920306
9.91961 13.2633 -0.919649
13.263 13.263 -0.918249
16.0331 13.2648 -0.91738
18.0185 13.2803 -0.921425
-9.01054 16.0901 -0.919428
-7.04057 16.0406 -0.916334
[...]
POINT_DATA 1000
SCALARS mass float 
LOOKUP_TABLE default 
1
1
1
1
1
1
1
1
1
1
1
1
1
1
1
1
1
1
1
1
1
1
1
1
1
1
1
1
1
1
1
1
1
1
1
1
1
1
1
1
1
1
1
1
1
1
1
1
1
1
1
1
1
1
1
1
1
1
1
1
1
1
1
1
1
1
1
1
1
1
1
1
1
1
1
1
1
1
1
1
1
1
1
1
1
1
1
1
1
1
1
1
1
1
1
1
1
1
1
1
1
1
1
1
1
1
1
1
1
1
1
1
1
1
1
1
1
1
1
1
1
1
1
1
1
1
1
1
1
1
1
1
1
1
1
1
1
1
1
1
1
1
1
1
1
1
1
1
1
1
1
1
1
1
1
1
1
1
1
1
1
1
1
1
1
1
1
1
1
1
1
1
1
1
1
1
1
1
1
1
1
1
1
1
1
1
1
1
1
1
1
1
1
1
1
1
1
1
1
1
1
1
1
1
1
1
1
1
1
1
1
1
1
1
1
1
1
1
1
1
1
1
1
1
1
1
1
1
1
1
1
1
1
1
1
1
1
1
1
1
1
1
1
1
1
1
1
1
1
1
1
1
1
1
1
1
1
1
1
1
1
1
1
1
1
1
1
1
1
1
1
1
1
1
1
1
1
1
1
1
1
1
1
1
1
1
1
1
1
1
1
1
1
1
1
1
1
1
1
1
1
1
1
1
1
1
1
1
1
1
1
1
1
1
1
1
1
1
1
1
1
1
1
1
1
1
1
1
1
1
1
1
1
1
1
1
1
1
1
1
1
1
1
1
1
1
1
1
1
1
1
1
1
1
1
1
1
1
1
1
1
1
1
1
1
1
1
1
1
1
1
1
1
1
1
1
1
1
1
1
1
1
1
1
1
1
1
1
1
1
1
1
1
1
1
1
1
1
1
1
1
1
1
1
1
1
1
1
1
1
1
1
1
1
1
1
1
1
1
1
1
1
1
1
1
1
1
1
1
1
1
1
1
1
1
1
1
1
1
1
1
1
1
1
1
1
1
1
1
1
1
1
1
1
1
1
1
1
1
1
1
1
1
1
1
1
1
1
1
1
1
1
1
1
1
1
1
1
1
1
1
1
1
1
1
1
1
1
1
1
1
1
1
1
1
1
1
1
1
1
1
1
1
1
1
1
1
1
1
1
1
1
1
1
1
1
1
1
1
1
1
1
1
1
1
1
1
1
1
1
1
1
1
1
1
1
1
1
1
1
1
1
1
1
1
1
1
1
1
1
1
1
1
1
1
1
1
1
1
1
1
1
1
1
1
1
1
1
1
1
1
1
1
1
1
1
1
1
1
1
1
1
1
1
1
1
1
1
1
1
1
1
1
1
1
1
1
1
1
1
1
1
1
1
1
1
1
1
1
1
1
1
1
1
1
1
1
1
1
1
1
1
1
1
1
1
1
1
1
1
1
1
1
1
1
1
1
1
1
1
1
1
1
1
1
1
1
1
1
1
1
1
1
1
1
1
1
1
1
1
1
1
1
1
1
1
1
1
1
1
1
1
1
1
1
1
1
1
1
1
1
1
1
1
1
1
1
1
1
1
1
1
1
1
1
1
1
1
1
1
1
1
1
1
1
1
1
1
1
1
1
1
1
1
1
1
1
1
1
1
1
1
1
1
1
1
1
1
1
1
1
1
1
1
1
1
1
1
1
1
1
1
1
1
1
1
1
1
1
1
1
1
1
1
1
1
1
1
1
1
1
1
1
1
1
1
1
1
1
1
1
1
1
1
1
1
1
1
1
1
1
1
1
1
1
1
1
1
1
1
1
1
1
1
1
1
1
1
1
1
1
1
1
1
1
1
1
1
1
1
1
1
1
1
1
1
1
1
1
1
1
1
1
1
1
1
1
1
1
1
1
1
1
1
1
1
1
1
1
1
1
1
1
1
1
1
1
1
1
1
1
1
1
1
1
1
1
1
1
1
1
1
1
1
1
1
1
1
1
1
1
1
1
1
1
1
1
1
1
1
1
1
1
1
1
1
1
1
1
1
1
1
1
1
1
1
1
1
1
1
1
1
1
1
1
1
1
1
1
1
1
1
1
1
1
1
1
1
1
1
1
1
1
1
1
1
1
1
1
1
1
1
1
1
1
1
1
1
1
1
1
1
1
1
1
1
1
1
1
1
1
1
1
1
1
1
1
1
1
1
1
1
1
1
1
1
1
1
1
1
1
1
1
1
1
1
1
1
1
1
1
1
1
1
1
1
1
1
1
1
1
1
1
1
1
1
1
1
1
1
VECTORS velocity float 
-12.0824 -12.0824 -12.0824
-11.323 -11.9741 -11.9741
-8.77629 -12.0097 -12.0097
-5.46975 -12.0394 -12.0395
-1.86349 -12.0522 -12.0522
1.86351 -12.0522 -12.0522
5.4698 -12.0394 -12.0395
8.77628 -12.0097 -12.0097
11.323 -11.9741 -11.9741
12.0824 -12.0824 -12.0824
-11.9741 -11.323 -11.9741
-11.2868 -11.2868 -11.8423
-8.77325 -11.2706 -11.8778
-5.47129 -11.2668 -11.9101
-1.86434 -11.2664 -11.924
1.86428 -11.2664 -11.924
5.4713 -11.2668 -11.9101
8.77324 -11.2706 -11.8778
11.2867 -11.2867 -11.8423
11.9741 -11.323 -11.9741
-12.0097 -8.7763 -12.0097
-11.2706 -8.77325 -11.8778
-8.76972 -8.76971 -11.9095
-5.47266 -8.76957 -11.9398
-1.86509 -8.76984 -11.9531
1.86513 -8.76984 -11.9531
5.47268 -8.76957 -11.9397
8.76971 -8.76971 -11.9095
11.2706 -8.77323 -11.8778
12.0097 -8.77627 -12.0097
-12.0394 -5.46975 -12.0395
-11.2668 -5.4713 -11.9101
-8.76957 -5.47264 -11.9398
-5.47453 -5.47452 -11.9688
-1.86607 -5.47546 -11.9817
1.86607 -5.47546 -11.9817
5.47453 -5.47452 -11.9688
8.76956 -5.47266 -11.9398
11.2668 -5.47128 -11.91
12.0395 -5.46977 -12.0394
-12.0522 -1.86346 -12.0522
-11.2664 -1.86432 -11.924
-8.76986 -1.86509 -11.9531
-5.47548 -1.86607 -11.9817
-1.86655 -1.86654 -11.9944
1.86656 -1.86654 -11.9944
5.47543 -1.86606 -11.9817
8.76982 -1.86509 -11.9531
11.2664 -1.86433 -11.924
12.0522 -1.86348 -12.0522
-12.0522 1.86346 -12.0522
-11.2664 1.86433 -11.924
-8.76986 1.86512 -11.9531
-5.47547 1.86606 -11.9816
-1.86652 1.86652 -11.9943
1.86655 1.86653 -11.9943
5.47548 1.86606 -11.9817
8.76988 1.86512 -11.9531
11.2664 1.86433 -11.924
12.0522 1.86348 -12.0522
-12.0395 5.46982 -12.0395
-11.2668 5.47131 -11.9101
-8.7696 5.47273 -11.9398
-5.47453 5.47449 -11.9688
-1.86608 5.47546 -11.9817
1.86603 5.47545 -11.9817
5.4745 5.4745 -11.9688
8.76958 5.47265 -11.9398
11.2668 5.47128 -11.9101
12.0394 5.46978 -12.0395
-12.0097 8.77627 -12.0097
-11.2706 8.77322 -11.8778
-8.76973 8.76972 -11.9095
-5.47266 8.76958 -11.9398
-1.86509 8.76986 -11.9531
1.86513 8.76987 -11.9531
5.47268 8.76959 -11.9398
8.76971 8.76972 -11.9095
11.2706 8.77327 -11.8778
12.0097 8.77629 -12.0097
-11.9741 11.323 -11.9741
-11.2868 11.2867 -11.8423
-8.77325 11.2706 -11.8778
-5.47129 11.2668 -11.9101
-1.86431 11.2664 -11.924
1.8643 11.2664 -11.924
5.47131 11.2668 -11.9101
8.77323 11.2706 -11.8779
11.2867 11.2868 -11.8423
11.9741 11.323 -11.9741
-12.0824 12.0824 -12.0824
-11.323 11.9741 -11.9741
-8.77629 12.0097 -12.0097
-5.46977 12.0394 -12.0395
-1.86348 12.0522 -12.0522
1.8635 12.0522 -12.0522
5.46978 12.0394 -12.0395
8.77629 12.0097 -12.0097
11.323 11.9741 -11.9741
12.0824 12.0824 -12.0824
-11.9741 -11.9741 -11.323
-11.2868 -11.8423 -11.2867
-8.77326 -11.8778 -11.2706
-5.47128 -11.91 -11.2668
-1.86433 -11.924 -11.2664
1.86428 -11.924 -11.2664
5.47132 -11.9101 -11.2668
8.77323 -11.8778 -11.2706
11.2867 -11.8423 -11.2868
11.9741 -11.9741 -11.323
-11.8423 -11.2867 -11.2868
-11.2235 -11.2235 -11.2235
-8.76085 -11.1998 -11.1998
-5.46876 -11.1937 -11.1937
-1.86404 -11.1927 -11.1927
1.86406 -11.1927 -11.1927
5.46871 -11.1937 -11.1937
8.7609 -11.1998 -11.1998
11.2236 -11.2235 -11.2235
11.8423 -11.2868 -11.2868
-11.8778 -8.77324 -11.2706
-11.1998 -8.76085 -11.1998
-8.75348 -8.75346 -11.1762
-5.46848 -8.75151 -11.1702
-1.86442 -8.75116 -11.1694
1.8644 -8.75115 -11.1694
5.46849 -8.75152 -11.1702
8.75348 -8.75346 -11.1762
11.1998 -8.76086 -11.1998
11.8778 -8.77325 -11.2706
-11.91 -5.47129 -11.2668
-11.1936 -5.46873 -11.1937
-8.75153 -5.46847 -11.1702
-5.46961 -5.46961 -11.1642
-1.86512 -5.47023 -11.1633
1.86514 -5.47023 -11.1633
5.46963 -5.46961 -11.1642
8.75153 -5.46847 -11.1702
11.1937 -5.46874 -11.1936
11.9101 -5.47129 -11.2668
-11.924 -1.86432 -11.2664
-11.1927 -1.86404 -11.1927
-8.75115 -1.86441 -11.1694
-5.47024 -1.86517 -11.1633
-1.86556 -1.86557 -11.1623
1.86558 -1.86554 -11.1623
5.47029 -1.86519 -11.1633
8.75116 -1.86439 -11.1694
11.1927 -1.86403 -11.1927
11.924 -1.86432 -11.2664
-11.924 1.86432 -11.2664
-11.1927 1.86403 -11.1927
-8.75118 1.8644 -11.1694
-5.47025 1.86517 -11.1632
-1.86559 1.86559 -11.1623
1.86558 1.86557 -11.1623
5.47028 1.86517 -11.1633
8.75117 1.86437 -11.1694
11.1927 1.86402 -11.1927
11.924 1.86431 -11.2664
-11.91 5.47131 -11.2668
-11.1936 5.46875 -11.1937
-8.75153 5.46847 -11.1702
-5.46961 5.4696 -11.1642
-1.86514 5.47028 -11.1633
1.86515 5.47029 -11.1633
5.46963 5.46961 -11.1642
8.75155 5.46849 -11.1702
11.1937 5.46874 -11.1937
11.9101 5.47132 -11.2668
-11.8778 8.77324 -11.2706
-11.1998 8.76089 -11.1998
-8.75347 8.75351 -11.1762
-5.46847 8.75156 -11.1702
-1.86442 8.75117 -11.1694
1.86438 8.75118 -11.1694
5.46847 8.75154 -11.1703
8.7535 8.75351 -11.1762
11.1998 8.76089 -11.1998
11.8778 8.77323 -11.2706
-11.8423 11.2867 -11.2868
-11.2235 11.2236 -11.2236
-8.76086 11.1998 -11.1998
-5.46876 11.1937 -11.1937
-1.86405 11.1927 -11.1927
1.86406 11.1927 -11.1927
5.46871 11.1937 -11.1937
8.7609 11.1998 -11.1998
11.2236 11.2236 -11.2236
11.8423 11.2867 -11.2868
-11.9741 11.9742 -11.323
-11.2868 11.8423 -11.2868
-8.77326 11.8778 -11.2706
-5.4713 11.9101 -11.2668
-1.86433 11.924 -11.2664
1.86427 11.924 -11.2664
5.47132 11.9101 -11.2668
8.77323 11.8778 -11.2706
11.2867 11.8423 -11.2868
11.9741 11.9742 -11.323
-12.0097 -12.0097 -8.77631
-11.2706 -11.8779 -8.77325
-8.76974 -11.9095 -8.7697
-5.47268 -11.9398 -8.76959
-1.86511 -11.9531 -8.76985
1.86514 -11.9531 -8.76985
5.47269 -11.9398 -8.76958
8.76973 -11.9095 -8.7697
11.2706 -11.8778 -8.77326
12.0097 -12.0097 -8.7763
-11.8779 -11.2706 -8.77325
-11.1998 -11.1998 -8.76086
-8.75348 -11.1762 -8.75347
-5.46849 -11.1703 -8.75154
-1.86442 -11.1694 -8.75115
1.86441 -11.1694 -8.75115
5.46849 -11.1702 -8.75153
8.75351 -11.1762 -8.75346
11.1998 -11.1998 -8.76087
11.8779 -11.2706 -8.77326
-11.9095 -8.76973 -8.76971
-11.1762 -8.75347 -8.75347
-8.74591 -8.7459 -8.74593
-5.46808 -8.74395 -8.7439
-1.86473 -8.74357 -8.74358
1.86471 -8.74357 -8.74357
5.46807 -8.74393 -8.74389
8.7459 -8.74593 -8.74595
11.1762 -8.75347 -8.75348
11.9095 -8.76974 -8.76972
-11.9398 -5.47268 -8.76957
-11.1703 -5.46849 -8.75151
-8.74395 -5.46808 -8.74392
-5.46915 -5.46914 -8.74198
-1.86547 -5.46978 -8.74162
1.86545 -5.4698 -8.74161
5.46915 -5.46911 -8.74203
8.74388 -5.46812 -8.74389
11.1702 -5.46849 -8.75152
11.9398 -5.47268 -8.76957
-11.9531 -1.86512 -8.76987
-11.1694 -1.86441 -8.75116
-8.74358 -1.86478 -8.74358
-5.4698 -1.86548 -8.74166
-1.86588 -1.86586 -8.74123
1.86585 -1.86588 -8.74127
5.46975 -1.86546 -8.74161
8.74352 -1.86479 -8.74358
11.1694 -1.86441 -8.75117
11.9531 -1.8651 -8.76987
-11.9531 1.86512 -8.76986
-11.1694 1.86437 -8.75114
-8.74357 1.86472 -8.74359
-5.46978 1.86544 -8.74158
-1.86585 1.86587 -8.74119
1.86587 1.86585 -8.74116
5.46981 1.86549 -8.74163
8.74356 1.86468 -8.74357
11.1694 1.8644 -8.75114
11.9531 1.8651 -8.76986
-11.9398 5.47265 -8.7696
-11.1702 5.46849 -8.75154
-8.74392 5.46805 -8.74392
-5.46914 5.46912 -8.742
-1.86549 5.46979 -8.74164
1.86545 5.46977 -8.74165
5.46913 5.46915 -8.74196
8.74382 5.46805 -8.74394
11.1702 5.46847 -8.75154
11.9397 5.47265 -8.76961
-11.9095 8.76972 -8.76974
-11.1762 8.75352 -8.75346
-8.74588 8.74588 -8.74593
-5.46804 8.74389 -8.74394
-1.86472 8.74354 -8.74357
1.86472 8.74354 -8.74355
5.46808 8.74391 -8.74396
8.74588 8.74588 -8.74589
11.1762 8.7535 -8.75348
11.9095 8.76972 -8.76973
-11.8778 11.2706 -8.77328
-11.1998 11.1998 -8.76088
-8.75345 11.1762 -8.75347
-5.46846 11.1702 -8.75154
-1.86441 11.1694 -8.75117
1.86437 11.1694 -8.75117
5.46849 11.1702 -8.75153
8.75351 11.1761 -8.75349
11.1998 11.1998 -8.76088
11.8778 11.2706 -8.77328
-12.0097 12.0097 -8.77632
-11.2706 11.8778 -8.77327
-8.76971 11.9095 -8.76974
-5.47265 11.9397 -8.7696
-1.8651 11.9531 -8.76987
1.86513 11.9531 -8.76986
5.47267 11.9398 -8.76959
8.76972 11.9095 -8.76974
11.2706 11.8778 -8.77328
12.0097 12.0097 -8.77633
-12.0394 -12.0394 -5.4698
-11.2667 -11.91 -5.4713
-8.76954 -11.9398 -5.47267
-5.47451 -11.9688 -5.47455
-1.86604 -11.9817 -5.47547
1.86606 -11.9817 -5.47547
5.4745 -11.9688 -5.47456
8.76955 -11.9397 -5.47266
11.2667 -11.91 -5.47131
12.0394 -12.0394 -5.4698
-11.91 -11.2667 -5.47131
-11.1936 -11.1936 -5.46875
-8.75149 -11.1702 -5.46854
-5.4696 -11.1642 -5.46965
-1.86513 -11.1633 -5.47024
1.86513 -11.1633 -5.47024
5.46956 -11.1642 -5.46964
8.75147 -11.1702 -5.46847
11.1936 -11.1936 -5.46876
11.91 -11.2667 -5.47129
-11.9398 -8.76954 -5.47266
-11.1702 -8.75149 -5.46848
-8.74393 -8.74391 -5.46811
-5.46914 -8.74194 -5.4691
-1.86547 -8.74162 -5.46978
1.86546 -8.74161 -5.46978
5.46914 -8.74196 -5.46909
8.74391 -8.74389 -5.46812
11.1702 -8.75151 -5.46849
11.9398 -8.76955 -5.47269
-11.9688 -5.47451 -5.47455
-11.1641 -5.4696 -5.46962
-8.74195 -5.46912 -5.46913
-5.47018 -5.47018 -5.47021
-1.86616 -5.47088 -5.47084
1.86623 -5.47086 -5.47084
5.47026 -5.47021 -5.47025
8.74201 -5.46909 -5.46908
11.1642 -5.46962 -5.46964
11.9688 -5.47451 -5.47454
-11.9817 -1.86605 -5.47549
-11.1633 -1.86514 -5.47027
-8.74162 -1.86547 -5.4698
-5.47087 -1.86618 -5.47088
-1.86662 -1.86663 -5.47148
1.8666 -1.86661 -5.47152
5.47085 -1.86617 -5.47083
8.74164 -1.86546 -5.46982
11.1633 -1.86514 -5.47025
11.9817 -1.86602 -5.47549
-11.9817 1.86608 -5.47546
-11.1633 1.86512 -5.47023
-8.74163 1.86547 -5.46978
-5.47087 1.86621 -5.47082
-1.86664 1.86661 -5.47144
1.86659 1.86659 -5.47143
5.47084 1.8662 -5.47089
8.74162 1.86546 -5.46977
11.1633 1.86511 -5.47024
11.9817 1.86604 -5.47548
-11.9688 5.47451 -5.47454
-11.1642 5.46957 -5.46967
-8.74196 5.46916 -5.46912
-5.47017 5.47026 -5.47022
-1.86619 5.47083 -5.47091
1.86628 5.47085 -5.4709
5.47028 5.47023 -5.47019
8.74203 5.46917 -5.46913
11.1642 5.46962 -5.46966
11.9688 5.47452 -5.47455
-11.9398 8.76955 -5.47266
-11.1702 8.75148 -5.46849
-8.74394 8.7439 -5.46815
-5.46915 8.74201 -5.46916
-1.86549 8.74165 -5.46978
1.86547 8.74166 -5.46976
5.46914 8.74199 -5.46919
8.74385 8.74391 -5.46809
11.1702 8.75144 -5.46851
11.9398 8.76956 -5.47267
-11.91 11.2668 -5.47131
-11.1936 11.1936 -5.46876
-8.75151 11.1702 -5.46849
-5.46961 11.1642 -5.46966
-1.86514 11.1633 -5.47024
1.86512 11.1633 -5.47024
5.46957 11.1642 -5.46963
8.75148 11.1702 -5.46854
11.1936 11.1936 -5.46875
11.91 11.2667 -5.47131
-12.0394 12.0394 -5.46981
-11.2667 11.91 -5.47131
-8.76955 11.9398 -5.47269
-5.47451 11.9688 -5.47453
-1.86604 11.9817 -5.4755
1.86605 11.9817 -5.47549
5.47451 11.9688 -5.47454
8.76956 11.9398 -5.47267
11.2667 11.91 -5.47131
12.0394 12.0394 -5.4698
-12.0522 -12.0522 -1.86353
-11.2664 -11.924 -1.86433
-8.76985 -11.9531 -1.86512
-5.47547 -11.9817 -1.86609
-1.86653 -11.9943 -1.86655
1.86656 -11.9944 -1.86653
5.47543 -11.9817 -1.86612
8.76984 -11.9531 -1.86513
11.2664 -11.924 -1.86436
12.0522 -12.0522 -1.86352
-11.924 -11.2664 -1.86436
-11.1927 -11.1927 -1.86405
-8.75115 -11.1694 -1.86436
-5.47024 -11.1633 -1.86516
-1.86556 -11.1623 -1.86557
1.86559 -11.1623 -1.86556
5.47028 -11.1633 -1.86519
8.75118 -11.1694 -1.8644
11.1927 -11.1927 -1.86404
11.924 -11.2664 -1.86435
-11.9531 -8.76986 -1.86512
-11.1694 -8.75116 -1.86441
-8.74354 -8.74356 -1.86478
-5.46976 -8.74162 -1.86542
-1.86586 -8.74122 -1.86589
1.86585 -8.74125 -1.86589
5.46977 -8.7416 -1.86543
8.74349 -8.74356 -1.86481
11.1694 -8.75115 -1.86439
11.953 -8.76986 -1.8651
-11.9817 -5.47549 -1.86608
-11.1633 -5.47025 -1.86513
-8.74162 -5.46978 -1.86546
-5.47087 -5.47084 -1.86623
-1.86663 -5.47148 -1.86662
1.8666 -5.4715 -1.86661
5.47084 -5.47085 -1.86626
8.74165 -5.4698 -1.86542
11.1633 -5.47023 -1.86514
11.9817 -5.47547 -1.86608
-11.9944 -1.86651 -1.86652
-11.1623 -1.86555 -1.86559
-8.74122 -1.86588 -1.86588
-5.47146 -1.86662 -1.86664
-1.86701 -1.86701 -1.86705
1.86703 -1.86704 -1.86707
5.47145 -1.86661 -1.86658
8.74118 -1.86588 -1.86591
11.1622 -1.86555 -1.86558
11.9943 -1.86654 -1.86653
-11.9943 1.86651 -1.86653
-11.1623 1.86558 -1.86556
-8.74122 1.86586 -1.86587
-5.47146 1.86662 -1.86662
-1.867 1.86702 -1.86696
1.86702 1.86699 -1.86695
5.47146 1.86661 -1.86663
8.74117 1.86585 -1.86588
11.1623 1.86559 -1.86557
11.9943 1.86654 -1.86653
-11.9817 5.47547 -1.86609
-11.1633 5.47027 -1.86519
-8.74161 5.46972 -1.86546
-5.47088 5.47085 -1.86622
-1.86662 5.47141 -1.86667
1.86659 5.47141 -1.86666
5.47082 5.47087 -1.8662
8.74166 5.46973 -1.86549
11.1633 5.47026 -1.86523
11.9817 5.47544 -1.86612
-11.9531 8.76978 -1.86516
-11.1694 8.75114 -1.86442
-8.74354 8.7435 -1.8648
-5.46976 8.74165 -1.86547
-1.86585 8.7412 -1.86587
1.86586 8.74119 -1.86586
5.46977 8.74166 -1.86555
8.74349 8.74348 -1.86478
11.1694 8.75116 -1.86441
11.9531 8.76979 -1.86518
-11.924 11.2664 -1.86435
-11.1927 11.1927 -1.86409
-8.75115 11.1694 -1.86443
-5.47024 11.1633 -1.8652
-1.86556 11.1622 -1.86561
1.86559 11.1622 -1.86559
5.47026 11.1633 -1.86519
8.75116 11.1694 -1.86443
11.1927 11.1927 -1.86409
11.924 11.2664 -1.86435
-12.0522 12.0522 -1.86354
-11.2664 11.924 -1.86435
-8.76985 11.9531 -1.8652
-5.47546 11.9817 -1.86611
-1.86654 11.9943 -1.86656
1.86655 11.9943 -1.86655
5.47545 11.9817 -1.86611
8.76983 11.9531 -1.86517
11.2664 11.924 -1.86435
12.0522 12.0522 -1.86355
-12.0522 -12.0522 1.86346
-11.2664 -11.924 1.86427
-8.76985 -11.9531 1.8651
-5.47546 -11.9817 1.86605
-1.86654 -11.9943 1.86653
1.86654 -11.9943 1.86654
5.47543 -11.9817 1.86603
8.76982 -11.9531 1.86512
11.2664 -11.924 1.86429
12.0522 -12.0522 1.86347
-11.924 -11.2664 1.86432
-11.1927 -11.1927 1.86403
-8.75117 -11.1694 1.8644
-5.47024 -11.1633 1.86508
-1.86557 -11.1623 1.86554
1.86559 -11.1623 1.86555
5.47028 -11.1633 1.86511
8.75117 -11.1694 1.86444
11.1927 -11.1927 1.86404
11.924 -11.2664 1.86428
-11.9531 -8.76985 1.8651
-11.1694 -8.75116 1.86442
-8.74355 -8.74356 1.86466
-5.46979 -8.74161 1.86549
-1.86586 -8.74123 1.86585
1.86589 -8.74115 1.86585
5.46975 -8.74162 1.86552
8.74352 -8.74353 1.86466
11.1694 -8.75117 1.8644
11.9531 -8.76986 1.86508
-11.9817 -5.47547 1.86599
-11.1633 -5.47024 1.86509
-8.7416 -5.46975 1.86547
-5.47087 -5.47085 1.8661
-1.86663 -5.47145 1.86664
1.86662 -5.47142 1.86663
5.47081 -5.47089 1.86613
8.74164 -5.46974 1.86549
11.1633 -5.47025 1.86508
11.9817 -5.47547 1.86603
-11.9943 -1.86651 1.86651
-11.1623 -1.86556 1.86553
-8.74122 -1.86586 1.86583
-5.47146 -1.86664 1.8666
-1.86701 -1.86703 1.867
1.86702 -1.86693 1.86695
5.47145 -1.86665 1.86662
8.74121 -1.86587 1.8658
11.1623 -1.86557 1.86552
11.9943 -1.86651 1.86652
-11.9943 1.86654 1.86654
-11.1623 1.86558 1.86555
-8.74121 1.86589 1.86583
-5.47144 1.86659 1.86664
-1.86701 1.86703 1.86706
1.86704 1.86707 1.86709
5.47148 1.86656 1.86659
8.74125 1.86592 1.86588
11.1623 1.86557 1.86556
11.9944 1.86655 1.86654
-11.9817 5.47548 1.86599
-11.1633 5.47027 1.86508
-8.74161 5.46977 1.86549
-5.47087 5.47082 1.86618
-1.86663 5.47144 1.86658
1.8666 5.47151 1.86658
5.47083 5.47079 1.86624
8.74163 5.4698 1.86544
11.1633 5.47027 1.86507
11.9817 5.47547 1.86603
-11.9531 8.76981 1.86503
-11.1694 8.75114 1.86438
-8.74354 8.74353 1.86466
-5.46978 8.74164 1.86545
-1.86586 8.74117 1.86585
1.86588 8.7413 1.86586
5.46974 8.74156 1.86539
8.74348 8.74359 1.8647
11.1694 8.75114 1.86442
11.9531 8.7698 1.86505
-11.924 11.2664 1.86425
-11.1927 11.1927 1.864
-8.75117 11.1694 1.86439
-5.47024 11.1633 1.86507
-1.86557 11.1623 1.86554
1.86558 11.1624 1.86554
5.47026 11.1632 1.8651
8.75114 11.1694 1.86434
11.1927 11.1927 1.86396
11.924 11.2664 1.86425
-12.0522 12.0522 1.86344
-11.2664 11.924 1.86427
-8.76986 11.9531 1.86506
-5.47545 11.9817 1.86604
-1.86655 11.9943 1.86653
1.86655 11.9944 1.86653
5.47544 11.9816 1.86602
8.76982 11.9532 1.86504
11.2664 11.924 1.86424
12.0522 12.0522 1.86346
-12.0394 -12.0394 5.46972
-11.2667 -11.91 5.47125
-8.76955 -11.9398 5.47261
-5.47451 -11.9688 5.47445
-1.86604 -11.9817 5.47545
1.86606 -11.9817 5.47545
5.47453 -11.9688 5.47444
8.76955 -11.9398 5.47263
11.2667 -11.91 5.47124
12.0394 -12.0394 5.46972
-11.91 -11.2667 5.47125
-11.1936 -11.1936 5.46865
-8.7515 -11.1702 5.46849
-5.46959 -11.1642 5.46954
-1.86514 -11.1633 5.47021
1.86511 -11.1633 5.4702
5.46957 -11.1642 5.46953
8.75148 -11.1702 5.4685
11.1936 -11.1936 5.46866
11.91 -11.2667 5.47125
-11.9398 -8.76957 5.47264
-11.1702 -8.75152 5.46848
-8.74392 -8.74392 5.46801
-5.46912 -8.74196 5.4692
-1.86548 -8.7416 5.46972
1.86546 -8.74164 5.46972
5.46915 -8.74196 5.46918
8.74392 -8.74393 5.46797
11.1702 -8.75151 5.4685
11.9398 -8.76956 5.47264
-11.9688 -5.47452 5.47445
-11.1642 -5.46961 5.4696
-8.74196 -5.46913 5.46918
-5.47017 -5.47017 5.47009
-1.86621 -5.47086 5.47088
1.86624 -5.47087 5.47088
5.47024 -5.47017 5.47015
8.74201 -5.46913 5.4692
11.1642 -5.4696 5.46955
11.9688 -5.47452 5.47445
-11.9817 -1.86605 5.47543
-11.1633 -1.86513 5.47016
-8.7416 -1.86547 5.46971
-5.47086 -1.86618 5.47089
-1.86662 -1.86662 5.47142
1.8666 -1.86666 5.47139
5.47085 -1.86617 5.47089
8.74163 -1.86547 5.46968
11.1633 -1.86514 5.47019
11.9817 -1.86607 5.47544
-11.9817 1.86605 5.47543
-11.1633 1.8651 5.47019
-8.74161 1.86545 5.4697
-5.47088 1.86621 5.47084
-1.86663 1.8666 5.47149
1.86659 1.86657 5.47149
5.4708 1.86624 5.47081
8.74161 1.86545 5.46969
11.1632 1.86511 5.47024
11.9816 1.86603 5.47544
-11.9688 5.4745 5.47449
-11.1642 5.46957 5.46953
-8.74194 5.46912 5.46918
-5.47015 5.47024 5.47019
-1.86619 5.47086 5.47079
1.86627 5.4708 5.47085
5.47023 5.47028 5.47021
8.74203 5.46912 5.46917
11.1642 5.4696 5.46951
11.9688 5.47456 5.47446
-11.9398 8.76954 5.47263
-11.1702 8.75143 5.46847
-8.74392 8.74388 5.46799
-5.46913 8.74199 5.46915
-1.86548 8.74164 5.4697
1.86545 8.7416 5.46973
5.46916 8.74202 5.46909
8.74391 8.74385 5.46801
11.1702 8.75146 5.46848
11.9398 8.7696 5.47263
-11.91 11.2668 5.47129
-11.1936 11.1936 5.46864
-8.75149 11.1702 5.46848
-5.4696 11.1642 5.46954
-1.86513 11.1633 5.4702
1.86514 11.1632 5.47019
5.46961 11.1642 5.46955
8.75146 11.1702 5.46848
11.1936 11.1936 5.46868
11.91 11.2668 5.47129
-12.0394 12.0394 5.46973
-11.2668 11.91 5.47127
-8.76955 11.9398 5.47261
-5.47451 11.9688 5.47445
-1.86604 11.9817 5.47541
1.86607 11.9816 5.47542
5.47454 11.9689 5.47446
8.7696 11.9397 5.47262
11.2668 11.91 5.47127
12.0395 12.0395 5.46972
-12.0097 -12.0097 8.77629
-11.2706 -11.8778 8.7732
-8.7697 -11.9095 8.76962
-5.47266 -11.9398 8.7695