# vtk DataFile Version 3.0 
Lennard-Jones particle simulation 
ASCII 
DATASET UNSTRUCTURED_GRID 
POINTS 2 float 
5.06085 5.06085 5.06085
-0.0608538 -0.0608538 -0.0608538
CELLS 0 0
CELL_TYPES 0
POINT_DATA 2
SCALARS mass float 
LOOKUP_TABLE default 
1
1
VECTORS velocity float 
0.365609 0.365609 0.365609
-0.365609 -0.365609 -0.365609
