# vtk DataFile Version 3.0 
Lennard-Jones particle simulation 
ASCII 
DATASET UNSTRUCTURED_GRID 
POINTS 2 float 
1.49293 1.49293 1.49293
3.50707 3.50707 3.50707
CELLS 0 0
CELL_TYPES 0
POINT_DATA 2
SCALARS mass float 
LOOKUP_TABLE default 
1
1
VECTORS velocity float 
0.0461833 0.0461833 0.0461833
-0.0461833 -0.0461833 -0.0461833
