# vtk DataFile Version 3.0 
Lennard-Jones particle simulation 
ASCII 
DATASET UNSTRUCTURED_GRID 
POINTS 1000 float 
-1.2754 -1.2754 -1.2754
0.0587631 -1.27226 -1.27226
1.31886 -1.27236 -1.27236
2.57767 -1.27248 -1.27248
3.85787 -1.27253 -1.27253
5.14213 -1.27253 -1.27253
6.42234 -1.27248 -1.27248
7.68114 -1.27236 -1.27236
8.94124 -1.27226 -1.27226
10.2754 -1.2754 -1.2754
-1.27226 0.0587634 -1.27226
0.0593118 0.0593122 -1.26715
1.31875 0.0586512 -1.26673
2.57743 0.058072 -1.26664
3.85778 0.0577935 -1.26662
5.14222 0.0577937 -1.26662
6.42257 0.0580717 -1.26664
7.68125 0.0586512 -1.26673
8.94069 0.059312 -1.26715
10.2723 0.0587632 -1.27227
-1.27236 1.31886 -1.27236
0.0586505 1.31875 -1.26673
1.31811 1.31811 -1.26615
2.57698 1.31757 -1.26599
3.85763 1.3173 -1.26594
5.14237 1.3173 -1.26594
6.42302 1.31757 -1.26599
7.6819 1.31811 -1.26615
8.94135 1.31875 -1.26673
10.2724 1.31886 -1.27236
-1.27248 2.57766 -1.27248
0.0580712 2.57742 -1.26664
1.31757 2.57698 -1.26599
2.57662 2.57662 -1.26579
3.85751 2.57644 -1.26573
5.14249 2.57644 -1.26573
6.42338 2.57662 -1.2658
7.68243 2.57698 -1.26599
8.94193 2.57743 -1.26664
10.2725 2.57767 -1.27248
-1.27253 3.85787 -1.27253
0.0577935 3.85778 -1.26662
1.3173 3.85764 -1.26594
2.57644 3.85751 -1.26573
3.85745 3.85745 -1.26565
5.14255 3.85745 -1.26565
6.42356 3.85751 -1.26573
7.6827 3.85763 -1.26594
8.9422 3.85778 -1.26662
10.2725 3.85787 -1.27253
-1.27253 5.14213 -1.27253
0.0577937 5.14222 -1.26661
1.3173 5.14237 -1.26594
2.57644 5.14249 -1.26572
3.85745 5.14255 -1.26565
5.14255 5.14255 -1.26565
6.42356 5.14249 -1.26573
7.6827 5.14237 -1.26594
8.94221 5.14222 -1.26662
10.2725 5.14213 -1.27253
-1.27248 6.42234 -1.27248
0.0580702 6.42258 -1.26664
1.31757 6.42302 -1.26599
2.57662 6.42338 -1.2658
3.85751 6.42356 -1.26573
5.14249 6.42356 -1.26573
6.42338 6.42338 -1.26579
7.68243 6.42302 -1.26599
8.94193 6.42257 -1.26664
10.2725 6.42234 -1.27248
-1.27236 7.68114 -1.27236
0.0586503 7.68125 -1.26673
1.31811 7.6819 -1.26615
2.57698 7.68243 -1.26599
3.85763 7.6827 -1.26594
5.14237 7.6827 -1.26594
6.42302 7.68243 -1.26599
7.6819 7.6819 -1.26615
8.94135 7.68125 -1.26673
10.2724 7.68114 -1.27236
-1.27227 8.94124 -1.27227
0.0593116 8.94069 -1.26715
1.31875 8.94135 -1.26673
2.57742 8.94193 -1.26664
3.85778 8.94221 -1.26662
5.14222 8.94221 -1.26662
6.42257 8.94193 -1.26664
7.68125 8.94135 -1.26673
8.94069 8.94069 -1.26715
10.2723 8.94124 -1.27227
-1.2754 10.2754 -1.2754
0.0587624 10.2723 -1.27227
1.31886 10.2724 -1.27236
2.57766 10.2725 -1.27248
3.85787 10.2725 -1.27253
5.14213 10.2725 -1.27253
6.42234 10.2725 -1.27248
7.68114 10.2724 -1.27236
8.94124 10.2723 -1.27227
10.2754 10.2754 -1.2754
-1.27227 -1.27227 0.0587621
0.0593117 -1.26715 0.0593114
1.31875 -1.26673 0.0586499
2.57742 -1.26664 0.0580701
3.85778 -1.26662 0.0577928
5.14222 -1.26662 0.0577932
6.42257 -1.26664 0.0580703
7.68125 -1.26673 0.0586501
8.94069 -1.26715 0.0593112
10.2723 -1.27227 0.0587623
-1.26715 0.0593114 0.0593112
0.0607722 0.0607722 0.0607722
1.31914 0.060334 0.0603334
2.57746 0.0598426 0.0598421
3.85777 0.0595957 0.0595962
5.14223 0.0595957 0.0595962
6.42254 0.0598424 0.0598424
7.68086 0.0603342 0.0603349
8.93923 0.0607719 0.060772
10.2672 0.0593117 0.0593111
-1.26673 1.31875 0.0586505
0.060333 1.31914 0.0603347
1.31861 1.31861 0.0599637
2.57707 1.31811 0.0595028
3.85765 1.31786 0.0592634
5.14235 1.31786 0.0592632
6.42293 1.31812 0.0595028
7.68139 1.31861 0.0599627
8.93967 1.31914 0.0603335
10.2667 1.31875 0.058649
-1.26664 2.57743 0.0580707
0.0598431 2.57746 0.0598419
1.31812 2.57707 0.0595006
2.57673 2.57674 0.0590521
3.85753 2.57656 0.0588186
5.14247 2.57656 0.0588184
6.42326 2.57674 0.0590489
7.68189 2.57707 0.0595024
8.94016 2.57746 0.0598427
10.2666 2.57742 0.0580714
-1.26661 3.85778 0.0577928
0.0595958 3.85777 0.0595954
1.31786 3.85765 0.0592638
2.57656 3.85753 0.0588153
3.85747 3.85747 0.0585898
5.14253 3.85747 0.0585886
6.42344 3.85753 0.0588191
7.68214 3.85765 0.0592625
8.94041 3.85777 0.0595955
10.2666 3.85778 0.0577931
-1.26662 5.14222 0.0577941
0.0595941 5.14223 0.0595973
1.31786 5.14235 0.0592638
2.57656 5.14247 0.058822
3.85747 5.14253 0.0585934
5.14253 5.14253 0.0585943
6.42344 5.14247 0.058819
7.68214 5.14235 0.0592641
8.94041 5.14223 0.0595966
10.2666 5.14222 0.0577939
-1.26664 6.42257 0.0580694
0.0598427 6.42254 0.0598401
1.31812 6.42293 0.0595007
2.57673 6.42327 0.0590506
3.85753 6.42344 0.0588176
5.14247 6.42344 0.0588169
6.42326 6.42326 0.0590519
7.68189 6.42293 0.0595002
8.94016 6.42254 0.0598403
10.2666 6.42257 0.0580699
-1.26673 7.68125 0.0586494
0.0603337 7.68086 0.0603341
1.31861 7.68139 0.0599627
2.57707 7.68189 0.0594997
3.85765 7.68214 0.0592642
5.14235 7.68214 0.0592642
6.42293 7.68189 0.0594987
7.68139 7.68139 0.0599637
8.93967 7.68086 0.0603344
10.2667 7.68125 0.0586493
-1.26715 8.94069 0.0593107
0.0607717 8.93923 0.0607712
1.31914 8.93967 0.0603337
2.57746 8.94016 0.0598408
3.85777 8.94041 0.0595949
5.14223 8.94041 0.0595955
6.42254 8.94016 0.0598413
7.68086 8.93967 0.060332
8.93923 8.93923 0.060771
10.2672 8.94069 0.0593106
-1.27227 10.2723 0.0587615
0.0593109 10.2672 0.0593108
1.31875 10.2667 0.0586486
2.57742 10.2666 0.0580703
3.85778 10.2666 0.0577924
5.14222 10.2666 0.0577924
6.42257 10.2666 0.0580701
7.68125 10.2667 0.0586489
8.94069 10.2672 0.0593106
10.2723 10.2723 0.0587609
-1.27236 -1.27236 1.31886
0.0586491 -1.26673 1.31875
1.31811 -1.26615 1.3181
2.57698 -1.26599 1.31757
3.85763 -1.26594 1.3173
5.14237 -1.26594 1.3173
6.42302 -1.26599 1.31757
7.6819 -1.26615 1.3181
8.94135 -1.26673 1.31875
10.2724 -1.27236 1.31886
-1.26673 0.0586494 1.31875
0.0603329 0.060333 1.31914
1.31861 0.0599644 1.31861
2.57707 0.0594998 1.31811
3.85765 0.0592629 1.31786
5.14235 0.059263 1.31786
6.42293 0.0595015 1.31811
7.68139 0.0599629 1.31861
8.93967 0.0603337 1.31914
10.2667 0.0586492 1.31875
-1.26615 1.3181 1.3181
0.0599642 1.31861 1.31861
1.31811 1.31811 1.31811
2.57671 1.31763 1.31763
3.85753 1.31738 1.31738
5.14247 1.31738 1.31738
6.42329 1.31763 1.31763
7.68189 1.31811 1.31811
8.94004 1.31861 1.31861
10.2662 1.3181 1.3181
-1.26599 2.57698 1.31757
0.0595 2.57707 1.31811
1.31763 2.57671 1.31763
2.57638 2.57638 1.31716
3.85741 2.5762 1.31691
5.14258 2.5762 1.31691
6.42362 2.57638 1.31716
7.68237 2.5767 1.31763
8.9405 2.57707 1.31812
10.266 2.57698 1.31757
-1.26594 3.85763 1.3173
0.0592621 3.85765 1.31786
1.31738 3.85752 1.31738
2.5762 3.85742 1.31691
3.85735 3.85735 1.31666
5.14265 3.85735 1.31666
6.4238 3.85742 1.31691
7.68262 3.85752 1.31738
8.94073 3.85765 1.31786
10.2659 3.85763 1.3173
-1.26594 5.14237 1.3173
0.0592618 5.14235 1.31786
1.31738 5.14247 1.31738
2.5762 5.14258 1.31691
3.85735 5.14265 1.31667
5.14265 5.14265 1.31667
6.4238 5.14259 1.31691
7.68262 5.14247 1.31738
8.94074 5.14235 1.31786
10.2659 5.14237 1.3173
-1.26599 6.42302 1.31757
0.059503 6.42293 1.31811
1.31763 6.42329 1.31763
2.57638 6.42362 1.31716
3.85741 6.4238 1.31691
5.14258 6.4238 1.31691
6.42362 6.42362 1.31716
7.68237 6.42329 1.31763
8.94049 6.42293 1.31811
10.266 6.42302 1.31757
-1.26615 7.68189 1.3181
0.0599667 7.68139 1.31861
1.31811 7.68189 1.31811
2.57671 7.68237 1.31763
3.85753 7.68262 1.31738
5.14247 7.68262 1.31738
6.42329 7.68237 1.31763
7.68189 7.68188 1.31811
8.94004 7.68139 1.31861
10.2662 7.68189 1.3181
-1.26673 8.94135 1.31875
0.0603354 8.93967 1.31914
1.31861 8.94004 1.31861
2.57707 8.9405 1.31811
3.85765 8.94074 1.31786
5.14235 8.94073 1.31786
6.42293 8.9405 1.31811
7.68139 8.94004 1.31861
8.93967 8.93967 1.31914
10.2667 8.94135 1.31875
-1.27235 10.2724 1.31886
0.0586519 10.2667 1.31875
1.31811 10.2662 1.3181
2.57698 10.266 1.31757
3.85763 10.2659 1.3173
5.14237 10.2659 1.3173
6.42302 10.266 1.31757
7.68189 10.2662 1.3181
8.94135 10.2667 1.31875
10.2724 10.2724 1.31886
-1.27248 -1.27248 2.57766
0.0580738 -1.26664 2.57742
1.31757 -1.26599 2.57698
2.57662 -1.26579 2.57662
3.85751 -1.26573 2.57644
5.14249 -1.26573 2.57644
6.42338 -1.26579 2.57662
7.68243 -1.26599 2.57698
8.94193 -1.26664 2.57742
10.2725 -1.27248 2.57766
-1.26664 0.0580742 2.57742
0.059845 0.0598449 2.57746
1.31812 0.0595024 2.57707
2.57674 0.0590541 2.57673
3.85753 0.0588186 2.57656
5.14247 0.0588187 2.57656
6.42326 0.0590535 2.57673
7.68188 0.0595031 2.57707
8.94015 0.0598443 2.57746
10.2666 0.0580737 2.57742
-1.26599 1.31757 2.57698
0.0595021 1.31812 2.57707
1.31763 1.31763 2.5767
2.57638 1.31716 2.57638
3.85741 1.31691 2.5762
5.14258 1.31691 2.5762
6.42362 1.31716 2.57638
7.68237 1.31763 2.5767
8.9405 1.31812 2.57707
10.266 1.31757 2.57698
-1.26579 2.57662 2.57662
0.0590533 2.57674 2.57674
1.31716 2.57638 2.57638
2.57605 2.57605 2.57605
3.85731 2.57587 2.57587
5.1427 2.57587 2.57587
6.42395 2.57605 2.57605
7.68285 2.57638 2.57638
8.94095 2.57674 2.57673
10.2658 2.57662 2.57662
-1.26573 3.85751 2.57643
0.0588186 3.85753 2.57656
1.31691 3.85742 2.5762
2.57587 3.85731 2.57587
3.85724 3.85724 2.5757
5.14276 3.85724 2.5757
6.42413 3.85731 2.57587
7.68309 3.85742 2.5762
8.94118 3.85753 2.57656
10.2657 3.85752 2.57644
-1.26573 5.14249 2.57644
0.0588188 5.14247 2.57656
1.31691 5.14258 2.5762
2.57587 5.14269 2.57587
3.85724 5.14276 2.5757
5.14276 5.14276 2.5757
6.42412 5.14269 2.57587
7.68309 5.14259 2.5762
8.94118 5.14247 2.57656
10.2657 5.14249 2.57644
-1.26579 6.42338 2.57662
0.0590533 6.42326 2.57673
1.31716 6.42362 2.57638
2.57605 6.42395 2.57605
3.85731 6.42413 2.57587
5.1427 6.42413 2.57587
6.42395 6.42395 2.57605
7.68285 6.42362 2.57637
8.94095 6.42326 2.57673
10.2658 6.42338 2.57662
-1.26599 7.68243 2.57698
0.0595018 7.68188 2.57707
1.31763 7.68237 2.5767
2.57638 7.68285 2.57637
3.85741 7.68309 2.5762
5.14258 7.68309 2.5762
6.42362 7.68284 2.57637
7.68237 7.68237 2.5767
8.9405 7.68188 2.57707
10.266 7.68243 2.57698
-1.26664 8.94193 2.57742
0.0598442 8.94015 2.57746
1.31812 8.9405 2.57707
2.57674 8.94095 2.57673
3.85753 8.94118 2.57656
5.14247 8.94118 2.57656
6.42326 8.94095 2.57673
7.68188 8.9405 2.57707
8.94015 8.94015 2.57746
10.2666 8.94193 2.57742
-1.27248 10.2725 2.57766
0.0580734 10.2666 2.57742
1.31757 10.266 2.57698
[...]
POINT_DATA 1000
SCALARS mass float 
LOOKUP_TABLE default 
1
1
1
1
1
1
1
1
1
1
1
1
1
1
1
1
1
1
1
1
1
1
1
1
1
1
1
1
1
1
1
1
1
1
1
1
1
1
1
1
1
1
1
1
1
1
1
1
1
1
1
1
1
1
1
1
1
1
1
1
1
1
1
1
1
1
1
1
1
1
1
1
1
1
1
1
1
1
1
1
1
1
1
1
1
1
1
1
1
1
1
1
1
1
1
1
1
1
1
1
1
1
1
1
1
1
1
1
1
1
1
1
1
1
1
1
1
1
1
1
1
1
1
1
1
1
1
1
1
1
1
1
1
1
1
1
1
1
1
1
1
1
1
1
1
1
1
1
1
1
1
1
1
1
1
1
1
1
1
1
1
1
1
1
1
1
1
1
1
1
1
1
1
1
1
1
1
1
1
1
1
1
1
1
1
1
1
1
1
1
1
1
1
1
1
1
1
1
1
1
1
1
1
1
1
1
1
1
1
1
1
1
1
1
1
1
1
1
1
1
1
1
1
1
1
1
1
1
1
1
1
1
1
1
1
1
1
1
1
1
1
1
1
1
1
1
1
1
1
1
1
1
1
1
1
1
1
1
1
1
1
1
1
1
1
1
1
1
1
1
1
1
1
1
1
1
1
1
1
1
1
1
1
1
1
1
1
1
1
1
1
1
1
1
1
1
1
1
1
1
1
1
1
1
1
1
1
1
1
1
1
1
1
1
1
1
1
1
1
1
1
1
1
1
1
1
1
1
1
1
1
1
1
1
1
1
1
1
1
1
1
1
1
1
1
1
1
1
1
1
1
1
1
1
1
1
1
1
1
1
1
1
1
1
1
1
1
1
1
1
1
1
1
1
1
1
1
1
1
1
1
1
1
1
1
1
1
1
1
1
1
1
1
1
1
1
1
1
1
1
1
1
1
1
1
1
1
1
1
1
1
1
1
1
1
1
1
1
1
1
1
1
1
1
1
1
1
1
1
1
1
1
1
1
1
1
1
1
1
1
1
1
1
1
1
1
1
1
1
1
1
1
1
1
1
1
1
1
1
1
1
1
1
1
1
1
1
1
1
1
1
1
1
1
1
1
1
1
1
1
1
1
1
1
1
1
1
1
1
1
1
1
1
1
1
1
1
1
1
1
1
1
1
1
1
1
1
1
1
1
1
1
1
1
1
1
1
1
1
1
1
1
1
1
1
1
1
1
1
1
1
1
1
1
1
1
1
1
1
1
1
1
1
1
1
1
1
1
1
1
1
1
1
1
1
1
1
1
1
1
1
1
1
1
1
1
1
1
1
1
1
1
1
1
1
1
1
1
1
1
1
1
1
1
1
1
1
1
1
1
1
1
1
1
1
1
1
1
1
1
1
1
1
1
1
1
1
1
1
1
1
1
1
1
1
1
1
1
1
1
1
1
1
1
1
1
1
1
1
1
1
1
1
1
1
1
1
1
1
1
1
1
1
1
1
1
1
1
1
1
1
1
1
1
1
1
1
1
1
1
1
1
1
1
1
1
1
1
1
1
1
1
1
1
1
1
1
1
1
1
1
1
1
1
1
1
1
1
1
1
1
1
1
1
1
1
1
1
1
1
1
1
1
1
1
1
1
1
1
1
1
1
1
1
1
1
1
1
1
1
1
1
1
1
1
1
1
1
1
1
1
1
1
1
1
1
1
1
1
1
1
1
1
1
1
1
1
1
1
1
1
1
1
1
1
1
1
1
1
1
1
1
1
1
1
1
1
1
1
1
1
1
1
1
1
1
1
1
1
1
1
1
1
1
1
1
1
1
1
1
1
1
1
1
1
1
1
1
1
1
1
1
1
1
1
1
1
1
1
1
1
1
1
1
1
1
1
1
1
1
1
1
1
1
1
1
1
1
1
1
1
1
1
1
1
1
1
1
1
1
1
1
1
1
1
1
1
1
1
1
1
1
1
1
1
1
1
1
1
1
1
1
1
1
1
1
1
1
1
1
1
1
1
1
1
1
1
1
1
1
1
1
1
1
1
1
1
1
1
1
1
1
1
1
1
1
1
1
1
1
1
1
1
1
1
1
1
1
1
1
1
1
1
1
1
1
1
1
1
1
1
1
1
1
1
1
1
1
1
1
1
1
1
1
1
1
1
1
1
1
1
1
1
1
1
1
1
1
1
1
1
1
1
1
1
1
1
1
1
1
1
1
1
1
1
1
1
1
1
1
1
1
1
1
1
1
1
1
1
1
1
1
1
1
1
1
1
1
1
1
1
1
1
1
1
1
1
1
1
1
VECTORS velocity float 
-12.1436 -12.1436 -12.1436
-10.8852 -12.0894 -12.0894
-8.89406 -12.0865 -12.0865
-5.61158 -12.0881 -12.0882
-1.88221 -12.0897 -12.0897
1.88223 -12.0897 -12.0897
5.61164 -12.0882 -12.0882
8.89406 -12.0865 -12.0865
10.8852 -12.0894 -12.0894
12.1436 -12.1436 -12.1436
-12.0894 -10.8852 -12.0894
-10.8664 -10.8664 -12.0127
-8.88777 -10.8702 -12.0036
-5.60953 -10.8754 -12.0027
-1.88168 -10.8783 -12.0035
1.88163 -10.8783 -12.0035
5.60954 -10.8754 -12.0027
8.88777 -10.8702 -12.0036
10.8664 -10.8664 -12.0127
12.0894 -10.8852 -12.0894
-12.0865 -8.89407 -12.0865
-10.8702 -8.88777 -12.0036
-8.8928 -8.89283 -11.9925
-5.6129 -8.89788 -11.9908
-1.88282 -8.90015 -11.9913
1.88286 -8.90014 -11.9913
5.61291 -8.89787 -11.9908
8.89279 -8.89281 -11.9926
10.8702 -8.88774 -12.0036
12.0865 -8.89404 -12.0865
-12.0882 -5.6116 -12.0882
-10.8755 -5.60955 -12.0027
-8.89788 -5.61287 -11.9908
-5.61635 -5.61635 -11.9886
-1.88419 -5.61801 -11.989
1.88418 -5.61801 -11.989
5.61638 -5.61635 -11.9887
8.89784 -5.61289 -11.9908
10.8755 -5.60953 -12.0027
12.0882 -5.6116 -12.0881
-12.0897 -1.88216 -12.0897
-10.8783 -1.88166 -12.0035
-8.90018 -1.88281 -11.9913
-5.61802 -1.88418 -11.9891
-1.88487 -1.88485 -11.9893
1.88487 -1.88485 -11.9893
5.618 -1.88417 -11.989
8.90013 -1.88282 -11.9914
10.8782 -1.88167 -12.0035
12.0897 -1.88219 -12.0897
-12.0897 1.88218 -12.0897
-10.8782 1.88168 -12.0035
-8.90017 1.88283 -11.9913
-5.61801 1.88417 -11.989
-1.88484 1.88482 -11.9893
1.88487 1.88484 -11.9893
5.61802 1.88417 -11.989
8.90018 1.88286 -11.9913
10.8783 1.88169 -12.0035
12.0897 1.8822 -12.0897
-12.0882 5.61164 -12.0882
-10.8755 5.60956 -12.0028
-8.89789 5.61295 -11.9908
-5.61637 5.61634 -11.9887
-1.88419 5.61801 -11.989
1.88415 5.618 -11.989
5.61633 5.61633 -11.9886
8.89788 5.61288 -11.9908
10.8755 5.60951 -12.0027
12.0881 5.61162 -12.0882
-12.0865 8.89405 -12.0865
-10.8702 8.88776 -12.0036
-8.89281 8.89284 -11.9926
-5.61291 8.89787 -11.9908
-1.88281 8.90017 -11.9913
1.88287 8.90017 -11.9913
5.6129 8.89791 -11.9908
8.89278 8.8928 -11.9925
10.8703 8.88778 -12.0036
12.0865 8.89404 -12.0865
-12.0894 10.8852 -12.0894
-10.8664 10.8664 -12.0127
-8.88777 10.8702 -12.0036
-5.60955 10.8755 -12.0027
-1.88164 10.8783 -12.0035
1.88163 10.8783 -12.0035
5.60956 10.8754 -12.0027
8.88775 10.8703 -12.0036
10.8664 10.8665 -12.0127
12.0894 10.8852 -12.0894
-12.1436 12.1436 -12.1436
-10.8852 12.0894 -12.0894
-8.89406 12.0865 -12.0865
-5.61159 12.0881 -12.0882
-1.88221 12.0897 -12.0897
1.88223 12.0897 -12.0897
5.61161 12.0882 -12.0882
8.89404 12.0864 -12.0865
10.8852 12.0894 -12.0894
12.1436 12.1436 -12.1436
-12.0894 -12.0894 -10.8852
-10.8664 -12.0127 -10.8664
-8.88778 -12.0036 -10.8702
-5.60954 -12.0027 -10.8755
-1.88166 -12.0035 -10.8783
1.8816 -12.0035 -10.8783
5.60958 -12.0027 -10.8755
8.88773 -12.0036 -10.8702
10.8664 -12.0127 -10.8664
12.0894 -12.0894 -10.8852
-12.0127 -10.8664 -10.8664
-10.8355 -10.8355 -10.8355
-8.87408 -10.8362 -10.8362
-5.60318 -10.8401 -10.84
-1.87993 -10.8424 -10.8424
1.87994 -10.8424 -10.8424
5.60316 -10.8401 -10.8401
8.87412 -10.8362 -10.8362
10.8355 -10.8355 -10.8355
12.0127 -10.8664 -10.8664
-12.0036 -8.88775 -10.8702
-10.8362 -8.87407 -10.8362
-8.87738 -8.87737 -10.8359
-5.60553 -8.88174 -10.8393
-1.88078 -8.8838 -10.8416
1.88076 -8.88379 -10.8416
5.60553 -8.88175 -10.8393
8.87741 -8.87738 -10.8359
10.8362 -8.87408 -10.8362
12.0036 -8.88777 -10.8702
-12.0027 -5.60954 -10.8755
-10.84 -5.60316 -10.8401
-8.88173 -5.60552 -10.8393
-5.60868 -5.60863 -10.8425
-1.88196 -5.61013 -10.8447
1.88198 -5.61013 -10.8447
5.60866 -5.60864 -10.8426
8.88174 -5.60551 -10.8393
10.8401 -5.60317 -10.8401
12.0027 -5.60954 -10.8755
-12.0035 -1.88167 -10.8783
-10.8424 -1.87993 -10.8424
-8.8838 -1.88077 -10.8416
-5.61013 -1.88202 -10.8447
-1.88265 -1.88264 -10.8468
1.88267 -1.88262 -10.8468
5.61017 -1.88204 -10.8447
8.88381 -1.88075 -10.8416
10.8424 -1.87991 -10.8424
12.0035 -1.88167 -10.8783
-12.0035 1.88166 -10.8782
-10.8424 1.87991 -10.8424
-8.88383 1.88076 -10.8416
-5.61013 1.88201 -10.8447
-1.88267 1.88266 -10.8467
1.88268 1.88265 -10.8467
5.61015 1.88201 -10.8447
8.88381 1.88074 -10.8415
10.8424 1.87989 -10.8424
12.0035 1.88166 -10.8782
-12.0027 5.60956 -10.8755
-10.84 5.60321 -10.8401
-8.88173 5.60549 -10.8393
-5.60868 5.60864 -10.8426
-1.88197 5.61016 -10.8447
1.88199 5.61018 -10.8447
5.60866 5.60864 -10.8425
8.88174 5.60552 -10.8394
10.8401 5.60319 -10.8401
12.0027 5.60956 -10.8755
-12.0036 8.88776 -10.8702
-10.8362 8.8741 -10.8362
-8.87738 8.87743 -10.8359
-5.60552 8.88177 -10.8393
-1.88078 8.88382 -10.8416
1.88075 8.88382 -10.8416
5.60551 8.88176 -10.8394
8.87741 8.87742 -10.8359
10.8362 8.87411 -10.8362
12.0036 8.88776 -10.8702
-12.0127 10.8664 -10.8664
-10.8355 10.8355 -10.8355
-8.87408 10.8362 -10.8362
-5.60319 10.8401 -10.8401
-1.87994 10.8424 -10.8424
1.87994 10.8424 -10.8424
5.60316 10.8401 -10.8401
8.87412 10.8362 -10.8362
10.8355 10.8355 -10.8355
12.0127 10.8664 -10.8664
-12.0894 12.0894 -10.8852
-10.8664 12.0127 -10.8664
-8.88778 12.0036 -10.8703
-5.60954 12.0027 -10.8755
-1.88167 12.0035 -10.8783
1.8816 12.0035 -10.8783
5.60958 12.0028 -10.8755
8.88774 12.0036 -10.8703
10.8664 12.0127 -10.8664
12.0894 12.0894 -10.8852
-12.0865 -12.0865 -8.89408
-10.8702 -12.0036 -8.88776
-8.89282 -11.9925 -8.8928
-5.61292 -11.9908 -8.89788
-1.88283 -11.9914 -8.90016
1.88287 -11.9914 -8.90015
5.61291 -11.9908 -8.89787
8.89283 -11.9926 -8.89281
10.8702 -12.0036 -8.88778
12.0865 -12.0865 -8.89408
-12.0036 -10.8702 -8.88775
-10.8362 -10.8362 -8.87408
-8.87739 -10.8359 -8.87735
-5.60553 -10.8394 -8.88176
-1.88078 -10.8416 -8.88379
1.88076 -10.8416 -8.88379
5.60553 -10.8393 -8.88175
8.87743 -10.8359 -8.87737
10.8362 -10.8362 -8.87409
12.0037 -10.8702 -8.88778
-11.9925 -8.89281 -8.89281
-10.8359 -8.87739 -8.87737
-8.88017 -8.88016 -8.88017
-5.60763 -8.8843 -8.88426
-1.88152 -8.88627 -8.88628
1.88151 -8.88628 -8.88627
5.60761 -8.88429 -8.88426
8.88014 -8.88018 -8.88019
10.8359 -8.87738 -8.87738
11.9926 -8.89281 -8.89281
-11.9908 -5.6129 -8.89788
-10.8394 -5.60554 -8.88173
-8.88431 -5.60761 -8.88427
-5.6106 -5.61058 -8.88829
-1.88274 -5.61205 -8.89027
1.88271 -5.61206 -8.89025
5.61062 -5.61056 -8.88835
8.88422 -5.60766 -8.88424
10.8393 -5.60553 -8.88174
11.9908 -5.61291 -8.89786
-11.9914 -1.88285 -8.90019
-10.8416 -1.88076 -8.88381
-8.88629 -1.88159 -8.88628
-5.61206 -1.88273 -8.89028
-1.88341 -1.88338 -8.89215
1.88339 -1.8834 -8.89218
5.612 -1.88273 -8.89026
8.88624 -1.88159 -8.88629
10.8416 -1.88078 -8.88382
11.9914 -1.88283 -8.90019
-11.9914 1.88285 -8.90017
-10.8416 1.88074 -8.8838
-8.88627 1.88153 -8.88629
-5.61204 1.88269 -8.89022
-1.88337 1.8834 -8.89211
1.88339 1.88337 -8.8921
5.61207 1.88276 -8.89028
8.88625 1.88148 -8.88628
10.8416 1.88077 -8.88378
11.9914 1.88283 -8.90017
-11.9908 5.61287 -8.8979
-10.8393 5.60551 -8.88175
-8.88428 5.60758 -8.88427
-5.6106 5.61057 -8.88833
-1.88276 5.61204 -8.89028
1.88272 5.61205 -8.89028
5.6106 5.6106 -8.88829
8.88421 5.60761 -8.88429
10.8393 5.6055 -8.88176
11.9907 5.61286 -8.8979
-11.9925 8.89281 -8.89285
-10.8359 8.87743 -8.87738
-8.88015 8.88015 -8.88017
-5.60758 8.88428 -8.88429
-1.88152 8.88623 -8.88627
1.88153 8.88623 -8.88626
5.60761 8.88429 -8.88431
8.88013 8.88011 -8.88015
10.8359 8.87743 -8.8774
11.9926 8.89281 -8.89282
-12.0036 10.8702 -8.88779
-10.8362 10.8362 -8.87412
-8.87737 10.8359 -8.87738
-5.6055 10.8393 -8.88178
-1.88077 10.8416 -8.88382
1.88073 10.8415 -8.88383
5.60554 10.8393 -8.88176
8.87741 10.8359 -8.8774
10.8362 10.8362 -8.8741
12.0036 10.8702 -8.88779
-12.0865 12.0865 -8.89407
-10.8702 12.0036 -8.88779
-8.8928 11.9926 -8.89283
-5.61288 11.9907 -8.89789
-1.88282 11.9914 -8.90017
1.88286 11.9914 -8.90017
5.61291 11.9908 -8.89789
8.89279 11.9926 -8.89284
10.8702 12.0036 -8.88779
12.0865 12.0864 -8.89409
-12.0881 -12.0881 -5.61163
-10.8754 -12.0027 -5.60956
-8.89784 -11.9908 -5.61289
-5.61635 -11.9886 -5.61638
-1.88415 -11.989 -5.618
1.88417 -11.989 -5.61802
5.61635 -11.9886 -5.61639
8.89783 -11.9908 -5.61287
10.8754 -12.0027 -5.60956
12.0881 -12.0881 -5.61163
-12.0027 -10.8754 -5.60956
-10.84 -10.84 -5.60318
-8.8817 -10.8393 -5.60559
-5.60865 -10.8425 -5.60869
-1.88197 -10.8447 -5.61012
1.88197 -10.8447 -5.61013
5.6086 -10.8425 -5.60868
8.8817 -10.8393 -5.60554
10.84 -10.84 -5.60319
12.0026 -10.8754 -5.60953
-11.9908 -8.89784 -5.61289
-10.8393 -8.8817 -5.60554
-8.88429 -8.88427 -5.60765
-5.61059 -8.88829 -5.61055
-1.88273 -8.89027 -5.61206
1.88272 -8.89025 -5.61206
5.61061 -8.8883 -5.61054
8.88426 -8.88425 -5.60767
10.8393 -8.88172 -5.60555
11.9908 -8.89785 -5.61292
-11.9886 -5.61634 -5.61637
-10.8425 -5.60866 -5.60866
-8.88826 -5.61057 -5.61059
-5.61351 -5.61347 -5.61352
-1.88384 -5.61498 -5.61495
1.88391 -5.61497 -5.61495
5.61355 -5.61351 -5.61356
8.88837 -5.61054 -5.61055
10.8426 -5.60867 -5.60869
11.9886 -5.61636 -5.61637
-11.989 -1.88416 -5.61804
-10.8447 -1.88197 -5.61015
-8.89027 -1.88273 -5.61208
-5.61498 -1.88388 -5.61499
-1.88454 -1.88456 -5.61641
1.88453 -1.88453 -5.61645
5.61497 -1.88387 -5.61494
8.89023 -1.88272 -5.61207
10.8447 -1.88197 -5.61014
11.9891 -1.88412 -5.61804
-11.989 1.8842 -5.61801
-10.8447 1.88195 -5.61012
-8.89027 1.88273 -5.61205
-5.61497 1.88389 -5.61493
-1.88457 1.88455 -5.61637
1.88453 1.8845 -5.61636
5.61496 1.88389 -5.61499
8.89022 1.88271 -5.61206
10.8447 1.88196 -5.61013
11.9891 1.88414 -5.61802
-11.9886 5.61633 -5.61638
-10.8425 5.6086 -5.6087
-8.88828 5.6106 -5.61058
-5.61346 5.61354 -5.61353
-1.88391 5.61493 -5.61502
1.88397 5.61496 -5.61501
5.61358 5.61354 -5.61349
8.88835 5.61061 -5.61059
10.8426 5.60865 -5.60869
11.9887 5.61636 -5.6164
-11.9908 8.89785 -5.61288
-10.8393 8.8817 -5.60554
-8.8843 8.88426 -5.60768
-5.6106 8.88838 -5.61062
-1.88275 8.89025 -5.61207
1.88274 8.89027 -5.61202
5.6106 8.88832 -5.61063
8.88422 8.88429 -5.60764
10.8393 8.88166 -5.60558
11.9908 8.89783 -5.6129
-12.0027 10.8755 -5.60956
-10.84 10.84 -5.60317
-8.8817 10.8393 -5.60554
-5.60867 10.8425 -5.60868
-1.88197 10.8447 -5.61011
1.88196 10.8447 -5.61012
5.6086 10.8425 -5.60866
8.88171 10.8393 -5.60558
10.84 10.84 -5.60318
12.0027 10.8754 -5.60956
-12.0881 12.0882 -5.61165
-10.8754 12.0027 -5.60957
-8.89785 11.9908 -5.61291
-5.61636 11.9887 -5.61638
-1.88415 11.9891 -5.61804
1.88417 11.9891 -5.61803
5.61635 11.9887 -5.61638
8.89783 11.9908 -5.61289
10.8754 12.0027 -5.60957
12.0881 12.0882 -5.61162
-12.0897 -12.0897 -1.88223
-10.8783 -12.0035 -1.88165
-8.90017 -11.9913 -1.88284
-5.61801 -11.989 -1.8842
-1.88485 -11.9893 -1.88488
1.88488 -11.9893 -1.88484
5.61798 -11.989 -1.88422
8.90015 -11.9913 -1.88286
10.8782 -12.0035 -1.88169
12.0897 -12.0897 -1.88223
-12.0035 -10.8783 -1.88171
-10.8424 -10.8424 -1.87994
-8.8838 -10.8415 -1.88075
-5.61012 -10.8447 -1.882
-1.88265 -10.8468 -1.88265
1.88267 -10.8468 -1.88264
5.61017 -10.8447 -1.88203
8.88381 -10.8416 -1.88076
10.8424 -10.8424 -1.87993
12.0035 -10.8782 -1.88169
-11.9913 -8.90017 -1.88282
-10.8415 -8.8838 -1.88077
-8.88626 -8.88627 -1.88158
-5.61202 -8.89028 -1.8827
-1.88339 -8.89216 -1.88339
1.88338 -8.89218 -1.88339
5.61205 -8.89025 -1.8827
8.8862 -8.88626 -1.88159
10.8415 -8.8838 -1.88076
11.9913 -8.90018 -1.88281
-11.989 -5.61804 -1.88418
-10.8447 -5.61015 -1.88197
-8.89027 -5.61206 -1.88272
-5.61497 -5.61495 -1.88391
-1.88456 -5.61638 -1.88455
1.88453 -5.61641 -1.88455
5.61496 -5.61495 -1.88392
8.89025 -5.61207 -1.88267
10.8447 -5.61013 -1.88197
11.9891 -5.61801 -1.8842
-11.9893 -1.88483 -1.88484
-10.8468 -1.88263 -1.88268
-8.89217 -1.88339 -1.88339
-5.61636 -1.88454 -1.88456
-1.88518 -1.88518 -1.88521
1.88521 -1.8852 -1.88521
5.61633 -1.88454 -1.8845
8.89214 -1.8834 -1.88344
10.8468 -1.88265 -1.88267
11.9892 -1.88486 -1.88485
-11.9893 1.88484 -1.88484
-10.8467 1.88266 -1.88264
-8.89217 1.88338 -1.8834
-5.61636 1.88454 -1.88456
-1.88517 1.8852 -1.88511
1.88521 1.88516 -1.8851
5.61634 1.88453 -1.88456
8.89214 1.88338 -1.88339
10.8467 1.88268 -1.88265
11.9892 1.88486 -1.88486
-11.989 5.61802 -1.88418
-10.8447 5.61015 -1.88204
-8.89027 5.612 -1.88273
-5.61498 5.61496 -1.8839
-1.88455 5.61631 -1.8846
1.88453 5.61632 -1.88458
5.61493 5.61498 -1.8839
8.89027 5.612 -1.88274
10.8447 5.61015 -1.88207
11.9891 5.61799 -1.88422
-11.9913 8.90008 -1.88289
-10.8415 8.8838 -1.88079
-8.88627 8.8862 -1.88161
-5.61202 8.89027 -1.88274
-1.88337 8.89215 -1.88338
1.88339 8.89214 -1.88339
5.61204 8.89027 -1.88281
8.8862 8.88619 -1.88159
10.8416 8.88379 -1.88076
11.9913 8.90011 -1.8829
-12.0035 10.8783 -1.88168
-10.8424 10.8424 -1.87999
-8.88379 10.8415 -1.88079
-5.61013 10.8447 -1.88205
-1.88264 10.8467 -1.8827
1.88267 10.8467 -1.88268
5.61015 10.8447 -1.88204
8.88379 10.8415 -1.88081
10.8424 10.8424 -1.87997
12.0035 10.8783 -1.88167
-12.0897 12.0897 -1.88226
-10.8782 12.0035 -1.88168
-8.90016 11.9913 -1.88294
-5.61801 11.9891 -1.8842
-1.88486 11.9892 -1.88488
1.88486 11.9892 -1.88488
5.61801 11.9891 -1.88422
8.90013 11.9913 -1.88289
10.8782 12.0035 -1.88167
12.0897 12.0897 -1.88228
-12.0897 -12.0897 1.88216
-10.8783 -12.0035 1.8816
-8.90016 -11.9913 1.88283
-5.61801 -11.989 1.88416
-1.88485 -11.9893 1.88485
1.88485 -11.9893 1.88484
5.618 -11.989 1.88413
8.90013 -11.9913 1.88285
10.8782 -12.0035 1.88163
12.0897 -12.0897 1.88217
-12.0035 -10.8782 1.88165
-10.8424 -10.8424 1.87991
-8.8838 -10.8415 1.8808
-5.61013 -10.8447 1.88194
-1.88266 -10.8468 1.88262
1.88267 -10.8467 1.88262
5.61017 -10.8447 1.88195
8.88381 -10.8415 1.88079
10.8424 -10.8424 1.87993
12.0035 -10.8782 1.88162
-11.9913 -8.90017 1.8828
-10.8416 -8.88381 1.88078
-8.88625 -8.88626 1.88147
-5.61205 -8.89026 1.88275
-1.88339 -8.89217 1.88336
1.88343 -8.8921 1.88336
5.612 -8.89026 1.88277
8.88624 -8.88624 1.88147
10.8416 -8.88382 1.88076
11.9914 -8.90017 1.88279
-11.989 -5.61801 1.88408
-10.8447 -5.61013 1.88193
-8.89025 -5.61203 1.88272
-5.61497 -5.61496 1.88381
-1.88457 -5.61635 1.88457
1.88454 -5.61633 1.88456
5.61495 -5.61499 1.88382
8.89024 -5.61201 1.88273
10.8447 -5.61012 1.88191
11.989 -5.61802 1.88415
-11.9893 -1.88483 1.88484
-10.8468 -1.88265 1.88264
-8.89216 -1.88338 1.88337
-5.61636 -1.88456 1.88452
-1.88518 -1.8852 1.88517
1.8852 -1.8851 1.88512
5.61634 -1.88458 1.88455
8.89216 -1.88339 1.88336
10.8468 -1.88266 1.88262
11.9893 -1.88483 1.88483
-11.9893 1.88486 1.88485
-10.8468 1.88267 1.88264
-8.89215 1.88342 1.88338
-5.61633 1.88452 1.88457
-1.88519 1.88521 1.88522
1.88522 1.88524 1.88524
5.61638 1.88449 1.88453
8.89218 1.88345 1.8834
10.8468 1.88266 1.88263
11.9893 1.88487 1.88486
-11.989 5.61803 1.88409
-10.8447 5.61016 1.88192
-8.89026 5.61204 1.88275
-5.61497 5.61493 1.88387
-1.88456 5.61633 1.88451
1.88453 5.61641 1.88451
5.61497 5.61492 1.88393
8.89021 5.61206 1.88269
10.8447 5.61016 1.88192
11.989 5.61802 1.88414
-11.9913 8.90012 1.88276
-10.8415 8.88378 1.88073
-8.88626 8.88624 1.88147
-5.61205 8.89028 1.8827
-1.88339 8.89215 1.88338
1.88343 8.89224 1.88341
5.61199 8.89019 1.88264
8.88621 8.88628 1.88151
10.8415 8.88378 1.88077
11.9913 8.90015 1.88276
-12.0035 10.8783 1.88158
-10.8424 10.8424 1.87989
-8.88381 10.8415 1.88075
-5.61013 10.8447 1.88191
-1.88265 10.8467 1.88262
1.88266 10.8468 1.88263
5.61015 10.8446 1.88195
8.88377 10.8416 1.88071
10.8424 10.8424 1.87985
12.0035 10.8782 1.88157
-12.0897 12.0897 1.88216
-10.8782 12.0035 1.88161
-8.90017 11.9913 1.8828
-5.618 11.9891 1.88414
-1.88486 11.9892 1.88486
1.88487 11.9893 1.88486
5.61799 11.9889 1.88412
8.90013 11.9914 1.88276
10.8782 12.0035 1.88157
12.0897 12.0897 1.8822
-12.0881 -12.0881 5.61154
-10.8754 -12.0027 5.60951
-8.89784 -11.9908 5.61282
-5.61635 -11.9886 5.61629
-1.88415 -11.989 5.61799
1.88417 -11.989 5.61799
5.61638 -11.9886 5.6163
8.89782 -11.9908 5.61284
10.8754 -12.0027 5.60949
12.0881 -12.0881 5.61155
-12.0027 -10.8754 5.6095
-10.84 -10.84 5.60308
-8.8817 -10.8393 5.60549
-5.60865 -10.8425 5.60859
-1.88197 -10.8447 5.61009
1.88195 -10.8447 5.61009
5.6086 -10.8425 5.60859
8.88172 -10.8393 5.60556
10.84 -10.84 5.60309
12.0026 -10.8754 5.60949
-11.9908 -8.89787 5.61289
-10.8393 -8.88172 5.60554
-8.88428 -8.88429 5.60757
-5.61056 -8.88831 5.61064
-1.88274 -8.89025 5.61199
1.88271 -8.89028 5.61199
5.61062 -8.8883 5.61062
8.88427 -8.88429 5.60752
10.8393 -8.88172 5.60557
11.9908 -8.89787 5.61287
-11.9886 -5.61636 5.61632
-10.8425 -5.60867 5.60865
-8.8883 -5.61057 5.61062
-5.61346 -5.61347 5.61338
-1.8839 -5.61496 5.61497
1.88393 -5.61497 5.615
5.61352 -5.61348 5.61346
8.88837 -5.61057 5.61062
10.8426 -5.60866 5.60859
11.9887 -5.61635 5.61629
-11.989 -1.88417 5.61798
-10.8447 -1.88196 5.61001
-8.89025 -1.88274 5.61197
-5.61496 -1.88387 5.61497
-1.88456 -1.88456 5.61633
1.88454 -1.88458 5.61628
5.61497 -1.88386 5.61497
8.89023 -1.88273 5.61193
10.8447 -1.88197 5.61005
11.989 -1.88418 5.61799
-11.989 1.88417 5.61799
-10.8447 1.88196 5.61007
-8.89026 1.88272 5.61194
-5.61498 1.88391 5.61495
-1.88456 1.88453 5.61637
1.88453 1.88449 5.61639
5.61492 1.88392 5.61493
8.89021 1.88272 5.61198
10.8447 1.88196 5.61013
11.989 1.88413 5.61799
-11.9886 5.61633 5.61634
-10.8425 5.60859 5.60857
-8.88829 5.61057 5.61061
-5.61344 5.61354 5.61348
-1.88389 5.61496 5.61493
1.88396 5.61493 5.61495
5.61352 5.61358 5.6135
8.88837 5.61057 5.61061
10.8426 5.60862 5.60856
11.9887 5.6164 5.61631
-11.9908 8.89782 5.61285
-10.8394 8.88167 5.60552
-8.88427 8.88422 5.60755
-5.61056 8.88831 5.6106
-1.88274 8.89026 5.61196
1.8827 8.89022 5.61198
5.61062 8.88836 5.61057
8.88429 8.88422 5.60757
10.8393 8.88168 5.60553
11.9908 8.89789 5.61287
-12.0027 10.8755 5.60954
-10.84 10.84 5.60308
-8.8817 10.8393 5.60552
-5.60866 10.8426 5.60858
-1.88197 10.8447 5.61009
1.88198 10.8446 5.61008
5.60866 10.8426 5.60859
8.88167 10.8393 5.60553
10.84 10.84 5.60309
12.0027 10.8754 5.60954
-12.0881 12.0882 5.61155
-10.8754 12.0027 5.60952
-8.89785 11.9908 5.61282
-5.61636 11.9887 5.61628
-1.88415 11.9891 5.61797
1.88418 11.989 5.61797
5.61639 11.9887 5.61629
8.89786 11.9907 5.61284
10.8755 12.0027 5.60952
12.0882 12.0882 5.61152
-12.0865 -12.0865 8.89406
-10.8702 -12.0036 8.88768
-8.89279 -11.9925 8.89275
-5.6129 -11.9908 8.8978