# vtk DataFile Version 3.0 
Lennard-Jones particle simulation 
ASCII 
DATASET UNSTRUCTURED_GRID 
POINTS 2 float 
-0.32578 0 0
1.32578 0 0
CELLS 0 0
CELL_TYPES 0
POINT_DATA 2
SCALARS mass float 
LOOKUP_TABLE default 
1
1
VECTORS velocity float 
-1.26496 0 0
1.26496 0 0
