# vtk DataFile Version 3.0 
Lennard-Jones particle simulation 
ASCII 
DATASET UNSTRUCTURED_GRID 
POINTS 40 float 
-0.812277 -0.66542 0
0.303234 -0.508739 0
1.3702 -0.518942 0
2.53152 -0.51483 0
3.74068 -0.512315 0
5.25932 -0.512315 0
6.46848 -0.51483 0
7.6298 -0.518942 0
8.69677 -0.508738 0
9.81228 -0.66542 0
-0.737104 0.379425 0
0.41116 0.52237 0
1.4555 0.531863 0
2.54995 0.538666 0
3.74874 0.541675 0
5.25126 0.541675 0
6.45004 0.538665 0
7.54449 0.531863 0
8.58884 0.52237 0
9.7371 0.379425 0
-0.737103 2.62057 0
0.41116 2.47763 0
1.4555 2.46814 0
2.54995 2.46133 0
3.74874 2.45833 0
5.25126 2.45833 0
6.45004 2.46133 0
7.54449 2.46814 0
8.58884 2.47763 0
9.7371 2.62058 0
-0.812277 3.66542 0
0.303234 3.50874 0
1.3702 3.51894 0
2.53152 3.51483 0
3.74068 3.51231 0
5.25932 3.51231 0
6.46848 3.51483 0
7.6298 3.51894 0
8.69677 3.50874 0
9.81228 3.66542 0
CELLS 0 0
CELL_TYPES 0
POINT_DATA 40
SCALARS mass float 
LOOKUP_TABLE default 
1
1
1
1
1
1
1
1
1
1
1
1
1
1
1
1
1
1
1
1
1
1
1
1
1
1
1
1
1
1
1
1
1
1
1
1
1
1
1
1
VECTORS velocity float 
-3.80122 -1.58105 0
-2.32796 -0.652549 0
-3.60528 -1.10086 0
-4.26433 -1.37807 0
-2.41188 -1.61988 0
2.41189 -1.61987 0
4.2643 -1.37806 0
3.60534 -1.10086 0
2.32794 -0.652546 0
3.80121 -1.58105 0
-3.22275 -3.58017 0
-2.80239 -1.92498 0
-1.71065 -1.71639 0
-3.99481 -1.41859 0
-2.27015 -1.13375 0
2.27018 -1.13375 0
3.99477 -1.4186 0
1.71065 -1.71639 0
2.8024 -1.92498 0
3.22273 -3.58017 0
-3.22275 3.58016 0
-2.80239 1.92498 0
-1.71065 1.71638 0
-3.9948 1.4186 0
-2.27015 1.13375 0
2.27018 1.13375 0
3.99477 1.4186 0
1.71065 1.71638 0
2.80241 1.92497 0
3.22272 3.58016 0
-3.80122 1.58106 0
-2.32797 0.652554 0
-3.60528 1.10087 0
-4.26433 1.37807 0
-2.41188 1.61987 0
2.41189 1.61987 0
4.2643 1.37806 0
3.60535 1.10086 0
2.32793 0.652555 0
3.80122 1.58106 0
