# vtk DataFile Version 3.0 
Lennard-Jones particle simulation 
ASCII 
DATASET UNSTRUCTURED_GRID 
POINTS 32 float 
4 299.45 0
6 299.45 0
8 299.45 0
10 299.45 0
12 299.45 0
14 299.45 0
16 299.45 0
18 299.45 0
20 299.45 0
22 299.45 0
24 299.45 0
26 299.45 0
28 299.45 0
30 299.45 0
32 299.45 0
34 299.45 0
36 299.45 0
38 299.45 0
40 299.45 0
42 299.45 0
44 299.45 0
46 299.45 0
48 299.45 0
50 299.45 0
52 299.45 0
54 299.45 0
56 299.45 0
58 299.45 0
60 299.45 0
62 299.45 0
64 299.45 0
66 299.45 0
CELLS 0 0
CELL_TYPES 0
POINT_DATA 32
SCALARS mass float 
LOOKUP_TABLE default 
1
1
1
1
1
1
1
1
1
1
1
1
1
1
1
1
1
1
1
1
1
1
1
1
1
1
1
1
1
1
1
1
SCALARS radius float 
LOOKUP_TABLE default 
1
1
1
1
1
1
1
1
1
1
1
1
1
1
1
1
1
1
1
1
1
1
1
1
1
1
1
1
1
1
1
1
VECTORS velocity float 
0 -1 0
0 -1 0
0 -1 0
0 -1 0
0 -1 0
0 -1 0
0 -1 0
0 -1 0
0 -1 0
0 -1 0
0 -1 0
0 -1 0
0 -1 0
0 -1 0
0 -1 0
0 -1 0
0 -1 0
0 -1 0
0 -1 0
0 -1 0
0 -1 0
0 -1 0
0 -1 0
0 -1 0
0 -1 0
0 -1 0
0 -1 0
0 -1 0
0 -1 0
0 -1 0
0 -1 0
0 -1 0
