# vtk DataFile Version 3.0 
Lennard-Jones particle simulation 
ASCII 
DATASET UNSTRUCTURED_GRID 
POINTS 32 float 
4 299.55 0
6 299.55 0
8 299.55 0
10 299.55 0
12 299.55 0
14 299.55 0
16 299.55 0
18 299.55 0
20 299.55 0
22 299.55 0
24 299.55 0
26 299.55 0
28 299.55 0
30 299.55 0
32 299.55 0
34 299.55 0
36 299.55 0
38 299.55 0
40 299.55 0
42 299.55 0
44 299.55 0
46 299.55 0
48 299.55 0
50 299.55 0
52 299.55 0
54 299.55 0
56 299.55 0
58 299.55 0
60 299.55 0
62 299.55 0
64 299.55 0
66 299.55 0
CELLS 0 0
CELL_TYPES 0
POINT_DATA 32
SCALARS mass float 
LOOKUP_TABLE default 
1
1
1
1
1
1
1
1
1
1
1
1
1
1
1
1
1
1
1
1
1
1
1
1
1
1
1
1
1
1
1
1
SCALARS radius float 
LOOKUP_TABLE default 
1
1
1
1
1
1
1
1
1
1
1
1
1
1
1
1
1
1
1
1
1
1
1
1
1
1
1
1
1
1
1
1
VECTORS velocity float 
0 -0.9 0
0 -0.9 0
0 -0.9 0
0 -0.9 0
0 -0.9 0
0 -0.9 0
0 -0.9 0
0 -0.9 0
0 -0.9 0
0 -0.9 0
0 -0.9 0
0 -0.9 0
0 -0.9 0
0 -0.9 0
0 -0.9 0
0 -0.9 0
0 -0.9 0
0 -0.9 0
0 -0.9 0
0 -0.9 0
0 -0.9 0
0 -0.9 0
0 -0.9 0
0 -0.9 0
0 -0.9 0
0 -0.9 0
0 -0.9 0
0 -0.9 0
0 -0.9 0
0 -0.9 0
0 -0.9 0
0 -0.9 0
