# vtk DataFile Version 3.0 
Lennard-Jones particle simulation 
ASCII 
DATASET UNSTRUCTURED_GRID 
POINTS 32 float 
4 299.79 0
6 299.79 0
8 299.79 0
10 299.79 0
12 299.79 0
14 299.79 0
16 299.79 0
18 299.79 0
20 299.79 0
22 299.79 0
24 299.79 0
26 299.79 0
28 299.79 0
30 299.79 0
32 299.79 0
34 299.79 0
36 299.79 0
38 299.79 0
40 299.79 0
42 299.79 0
44 299.79 0
46 299.79 0
48 299.79 0
50 299.79 0
52 299.79 0
54 299.79 0
56 299.79 0
58 299.79 0
60 299.79 0
62 299.79 0
64 299.79 0
66 299.79 0
CELLS 0 0
CELL_TYPES 0
POINT_DATA 32
SCALARS mass float 
LOOKUP_TABLE default 
1
1
1
1
1
1
1
1
1
1
1
1
1
1
1
1
1
1
1
1
1
1
1
1
1
1
1
1
1
1
1
1
SCALARS radius float 
LOOKUP_TABLE default 
1
1
1
1
1
1
1
1
1
1
1
1
1
1
1
1
1
1
1
1
1
1
1
1
1
1
1
1
1
1
1
1
VECTORS velocity float 
0 -0.6 0
0 -0.6 0
0 -0.6 0
0 -0.6 0
0 -0.6 0
0 -0.6 0
0 -0.6 0
0 -0.6 0
0 -0.6 0
0 -0.6 0
0 -0.6 0
0 -0.6 0
0 -0.6 0
0 -0.6 0
0 -0.6 0
0 -0.6 0
0 -0.6 0
0 -0.6 0
0 -0.6 0
0 -0.6 0
0 -0.6 0
0 -0.6 0
0 -0.6 0
0 -0.6 0
0 -0.6 0
0 -0.6 0
0 -0.6 0
0 -0.6 0
0 -0.6 0
0 -0.6 0
0 -0.6 0
0 -0.6 0
